LAMMPS data file via write_data, version 10 Sep 2025, timestep = 200000, units = real

2140 atoms
1024 atom types
1250 bonds
468 bond types
720 angles
1430 angle types
990 dihedrals
1216 dihedral types
0 impropers
4 improper types

2 3700 xlo xhi
0 1400 ylo yhi
0 1400 zlo zhi

Masses

1 14.007
2 1.008
3 4.003
4 6.941
5 9.012
6 10.811
7 12.011
8 14.007
9 15.999
10 18.998
11 20.179
12 22.99
13 24.305
14 26.982
15 28.086
16 30.974
17 32.065
18 35.453
19 39.948
20 20.179
21 79.904
22 126.905
23 12.011
24 12.011
25 12.011
26 12.011
27 12.011
28 12.011
29 1.008
30 12.011
31 12.011
32 12.011
33 12.011
34 12.011
35 12.011
36 12.011
37 12.011
38 12.011
39 12.011
40 12.011
41 12.011
42 12.011
43 12.011
44 12.011
45 12.011
46 15.999
47 1.008
48 12.011
49 12.011
50 32.065
51 32.065
52 32.065
53 32.065
54 1.008
55 1.008
56 12.011
57 12.011
58 12.011
59 12.011
60 12.011
61 12.011
62 14.007
63 12.011
64 12.011
65 1
66 4.003
67 20.179
68 39.948
69 83.798
70 131.293
71 12.011
72 12.011
73 15.999
74 12.011
75 12.011
76 12.011
77 35.453
78 12.011
79 35.453
80 12.011
81 35.453
82 32.065
83 15.999
84 12.011
85 14.007
86 1.008
87 15.999
88 14.007
89 12.011
90 12.011
91 12.011
92 12.011
93 12.011
94 12.011
95 12.011
96 1.008
97 12.011
98 12.011
99 12.011
100 1.008
101 12.011
102 1.008
103 12.011
104 12.011
105 12.011
106 12.011
107 35.453
108 12.011
109 1.008
110 15.999
111 1.008
112 1.008
113 12.011
114 12.011
115 12.011
116 15.999
117 12.011
118 12.011
119 15.999
120 1.008
121 15.999
122 1.008
123 15.999
124 1.008
125 12.011
126 12.011
127 12.011
128 1.008
129 15.999
130 12.011
131 15.999
132 15.999
133 12.011
134 12.011
135 12.011
136 12.011
137 1.008
138 15.999
139 15.999
140 1.008
141 12.011
142 1.008
143 12.011
144 1.008
145 12.011
146 1.008
147 12.011
148 1.008
149 12.011
150 12.011
151 12.011
152 32.065
153 32.065
154 32.065
155 32.065
156 1.008
157 1.008
158 12.011
159 12.011
160 12.011
161 12.011
162 12.011
163 12.011
164 12.011
165 12.011
166 12.011
167 12.011
168 12.011
169 12.011
170 12.011
171 12.011
172 12.011
173 12.011
174 32.065
175 12.011
176 12.011
177 12.011
178 35.453
179 12.011
180 12.011
181 12.011
182 12.011
183 12.011
184 12.011
185 12.011
186 12.011
187 12.011
188 15.999
189 14.007
190 14.007
191 14.007
192 1.008
193 1.008
194 12.011
195 12.011
196 12.011
197 12.011
198 12.011
199 12.011
200 15.999
201 14.007
202 1.008
203 14.007
204 12.011
205 15.999
206 1.008
207 1.008
208 12.011
209 12.011
210 12.011
211 12.011
212 12.011
213 12.011
214 14.007
215 12.011
216 35.453
217 14.007
218 12.011
219 12.011
220 15.999
221 15.999
222 1.008
223 12.011
224 15.999
225 12.011
226 12.011
227 12.011
228 12.011
229 12.011
230 15.999
231 1.008
232 12.011
233 15.999
234 1.008
235 12.011
236 12.011
237 12.011
238 14.007
239 14.007
240 14.007
241 1.008
242 1.008
243 12.011
244 12.011
245 12.011
246 12.011
247 12.011
248 12.011
249 12.011
250 12.011
251 12.011
252 14.007
253 1.008
254 12.011
255 14.007
256 1.008
257 12.011
258 12.011
259 12.011
260 12.011
261 14.007
262 1.008
263 14.007
264 12.011
265 14.007
266 1.008
267 12.011
268 1.008
269 12.011
270 1.008
271 14.007
272 12.011
273 14.007
274 12.011
275 12.011
276 12.011
277 1.008
278 15.999
279 1.008
280 15.999
281 1.008
282 1.008
283 12.011
284 1.008
285 14.007
286 12.011
287 14.007
288 12.011
289 12.011
290 12.011
291 1.008
292 15.999
293 14.007
294 1.008
295 1.008
296 1.008
297 1.008
298 14.007
299 12.011
300 14.007
301 12.011
302 12.011
303 12.011
304 14.007
305 12.011
306 14.007
307 1.008
308 14.007
309 1.008
310 1.008
311 1.008
312 1.008
313 14.007
314 12.011
315 14.007
316 12.011
317 12.011
318 12.011
319 1.008
320 14.007
321 1.008
322 15.999
323 12.011
324 1.008
325 12.011
326 1.008
327 12.011
328 1.008
329 14.007
330 12.011
331 14.007
332 12.011
333 12.011
334 12.011
335 1.008
336 15.999
337 1.008
338 14.007
339 1.008
340 1.008
341 1.008
342 1.008
343 12.011
344 1.008
345 30.974
346 15.999
347 15.999
348 12.011
349 12.011
350 35.453
351 12.011
352 18.998
353 35.453
354 79.904
355 126.905
356 14.007
357 6.941
358 22.99
359 39.098
360 85.468
361 132.905
362 24.305
363 40.078
364 87.62
365 137.327
366 12.011
367 1.008
368 32.065
369 12.011
370 1.008
371 15.999
372 12.011
373 1.008
374 12.011
375 14.007
376 12.011
377 1.008
378 14.007
379 1.008
380 12.011
381 1.008
382 12.011
383 1.008
384 4.003
385 15.999
386 1.008
387 238.029
388 15.999
389 12.011
390 15.999
391 30.974
392 15.999
393 15.999
394 12.011
395 1.008
396 30.974
397 15.999
398 15.999
399 12.011
400 1.008
401 30.974
402 15.999
403 15.999
404 12.011
405 1.008
406 12.011
407 1.008
408 12.011
409 12.011
410 1.008
411 12.011
412 12.011
413 1.008
414 12.011
415 12.011
416 12.011
417 15.999
418 15.999
419 12.011
420 1.008
421 12.011
422 12.011
423 12.011
424 15.999
425 32.065
426 15.999
427 12.011
428 1.008
429 14.007
430 1.008
431 14.007
432 1.008
433 12.011
434 1.008
435 12.011
436 1.008
437 12.011
438 1.008
439 12.011
440 12.011
441 12.011
442 12.011
443 12.011
444 32.065
445 15.999
446 32.065
447 32.065
448 15.999
449 12.011
450 12.011
451 12.011
452 12.011
453 12.011
454 14.007
455 1.008
456 12.011
457 12.011
458 12.011
459 12.011
460 12.011
461 12.011
462 14.007
463 14.007
464 1.008
465 12.011
466 12.011
467 12.011
468 12.011
469 12.011
470 12.011
471 14.007
472 12.011
473 12.011
474 12.011
475 1.008
476 1.008
477 1.008
478 14.007
479 12.011
480 1.008
481 14.007
482 12.011
483 12.011
484 12.011
485 1.008
486 1.008
487 1.008
488 14.007
489 12.011
490 12.011
491 1.008
492 1.008
493 14.007
494 12.011
495 12.011
496 1.008
497 1.008
498 1.008
499 14.007
500 14.007
501 12.011
502 12.011
503 12.011
504 1.008
505 1.008
506 1.008
507 1.008
508 14.007
509 12.011
510 14.007
511 12.011
512 12.011
513 1.008
514 1.008
515 1.008
516 1.008
517 15.999
518 12.011
519 12.011
520 1.008
521 1.008
522 15.999
523 12.011
524 14.007
525 12.011
526 12.011
527 1.008
528 1.008
529 1.008
530 15.999
531 14.007
532 12.011
533 12.011
534 12.011
535 1.008
536 1.008
537 1.008
538 14.007
539 12.011
540 12.011
541 12.011
542 12.011
543 12.011
544 12.011
545 12.011
546 12.011
547 1.008
548 1.008
549 1.008
550 1.008
551 1.008
552 1.008
553 1.008
554 14.007
555 12.011
556 12.011
557 12.011
558 12.011
559 12.011
560 12.011
561 12.011
562 12.011
563 12.011
564 1.008
565 1.008
566 1.008
567 1.008
568 1.008
569 1.008
570 1.008
571 14.007
572 12.011
573 14.007
574 12.011
575 12.011
576 12.011
577 14.007
578 12.011
579 14.007
580 1.008
581 1.008
582 1.008
583 1.008
584 32.065
585 12.011
586 14.007
587 12.011
588 12.011
589 1.008
590 1.008
591 1.008
592 14.007
593 12.011
594 1.008
595 12.011
596 12.011
597 14.007
598 12.011
599 12.011
600 12.011
601 12.011
602 12.011
603 12.011
604 1.008
605 1.008
606 1.008
607 1.008
608 14.007
609 12.011
610 14.007
611 12.011
612 12.011
613 12.011
614 1.008
615 1.008
616 1.008
617 1.008
618 12.011
619 12.011
620 12.011
621 12.011
622 12.011
623 12.011
624 12.011
625 12.011
626 12.011
627 12.011
628 12.011
629 12.011
630 12.011
631 12.011
632 12.011
633 32.065
634 1.008
635 12.011
636 12.011
637 14.007
638 12.011
639 12.011
640 12.011
641 12.011
642 12.011
643 12.011
644 12.011
645 12.011
646 12.011
647 32.065
648 227
649 232.038
650 243
651 12.011
652 12.011
653 1.008
654 138.905
655 144.242
656 151.964
657 157.25
658 173.04
659 12.011
660 35.453
661 1.008
662 12.011
663 12.011
664 12.011
665 12.011
666 12.011
667 12.011
668 12.011
669 18.998
670 12.011
671 18.998
672 79.904
673 12.011
674 12.011
675 12.011
676 18.998
677 12.011
678 18.998
679 12.011
680 79.904
681 12.011
682 126.905
683 12.011
684 32.065
685 12.011
686 12.011
687 12.011
688 12.011
689 12.011
690 1.008
691 1.008
692 12.011
693 14.007
694 1.008
695 1.008
696 1.008
697 12.011
698 12.011
699 14.007
700 14.007
701 14.007
702 12.011
703 14.007
704 12.011
705 12.011
706 12.011
707 12.011
708 12.011
709 1.008
710 14.007
711 15.999
712 12.011
713 1.008
714 12.011
715 12.011
716 12.011
717 14.007
718 12.011
719 12.011
720 14.007
721 15.999
722 12.011
723 15.999
724 12.011
725 12.011
726 12.011
727 1.008
728 1.008
729 1.008
730 15.999
731 30.974
732 12.011
733 12.011
734 1.008
735 30.974
736 18.998
737 14.007
738 15.999
739 12.011
740 12.011
741 12.011
742 18.998
743 12.011
744 1.008
745 12.011
746 1.008
747 14.007
748 14.007
749 14.007
750 12.011
751 12.011
752 12.011
753 12.011
754 12.011
755 12.011
756 1.008
757 1.008
758 1.008
759 12.011
760 12.011
761 12.011
762 12.011
763 12.011
764 12.011
765 12.011
766 12.011
767 12.011
768 12.011
769 12.011
770 12.011
771 12.011
772 12.011
773 1.008
774 12.011
775 12.011
776 12.011
777 12.011
778 12.011
779 12.011
780 12.011
781 15.999
782 1.008
783 14.007
784 14.007
785 14.007
786 12.011
787 14.007
788 1.008
789 12.011
790 12.011
791 12.011
792 12.011
793 12.011
794 12.011
795 12.011
796 12.011
797 1.008
798 12.011
799 12.011
800 14.007
801 15.999
802 1.008
803 18.998
804 12.011
805 1.008
806 12.011
807 12.011
808 12.011
809 12.011
810 12.011
811 12.011
812 18.998
813 12.011
814 1.008
815 12.011
816 12.011
817 35.453
818 12.011
819 1.008
820 12.011
821 12.011
822 79.904
823 12.011
824 1.008
825 12.011
826 12.011
827 18.998
828 35.453
829 79.904
830 12.011
831 15.999
832 12.011
833 18.998
834 14.007
835 12.011
836 12.011
837 12.011
838 12.011
839 15.999
840 14.007
841 1.008
842 15.999
843 1.008
844 12.011
845 12.011
846 12.011
847 12.011
848 12.011
849 12.011
850 12.011
851 65.377
852 1e-17
853 1e-17
854 1e-17
855 12.011
856 35.453
857 12.011
858 12.011
859 12.011
860 126.905
861 1.008
862 12.011
863 79.904
864 12.011
865 126.905
866 14.007
867 12.011
868 15.999
869 12.011
870 12.011
871 12.011
872 1.008
873 12.011
874 14.007
875 12.011
876 12.011
877 15.999
878 14.007
879 12.011
880 12.011
881 12.011
882 12.011
883 1.008
884 12.011
885 15.999
886 1.008
887 12.011
888 12.011
889 12.011
890 12.011
891 12.011
892 12.011
893 12.011
894 12.011
895 12.011
896 12.011
897 28.086
898 28.086
899 28.086
900 28.086
901 1.008
902 12.011
903 12.011
904 12.011
905 12.011
906 12.011
907 28.086
908 28.086
909 28.086
910 15.999
911 1.008
912 28.086
913 28.086
914 28.086
915 15.999
916 28.086
917 28.086
918 28.086
919 28.086
920 28.086
921 28.086
922 12.011
923 1.008
924 12.011
925 1.008
926 18.998
927 35.453
928 79.904
929 126.905
930 6.941
931 22.99
932 39.098
933 85.468
934 132.905
935 24.305
936 40.078
937 87.62
938 137.327
939 12.011
940 12.011
941 12.011
942 12.011
943 1.008
944 14.007
945 12.011
946 14.007
947 12.011
948 12.011
949 12.011
950 1.008
951 12.011
952 12.011
953 12.011
954 12.011
955 12.011
956 15.999
957 12.011
958 15.999
959 12.011
960 32.065
961 12.011
962 14.007
963 12.011
964 12.011
965 1.008
966 1.008
967 12.011
968 12.011
969 15.999
970 1.008
971 18.998
972 1.008
973 12.011
974 12.011
975 12.011
976 12.011
977 15.999
978 1.008
979 15.999
980 1.008
981 1e-17
982 15.999
983 1.008
984 1e-17
985 15.999
986 15.999
987 1.008
988 1.008
989 15.999
990 1.008
991 1e-17
992 12.011
993 12.011
994 1.008
995 1.008
996 12.011
997 1.008
998 12.011
999 12.011
1000 15.999
1001 14.007
1002 15.999
1003 1.008
1004 15.999
1005 1.008
1006 12.011
1007 12.011
1008 12.011
1009 12.011
1010 12.011
1011 12.011
1012 12.011
1013 12.011
1014 12.011
1015 12.011
1016 15.999
1017 15.999
1018 12.011
1019 12.011
1020 12.011
1021 1.008
1022 12.011
1023 12.011
1024 12.011

Pair Coeffs # lj/cut/coul/cut

1 0.073856 3.29013
2 0.03 2.46
3 0.02 2.556
4 0.018 2.126
5 0.05 3.25
6 0.05 3.6
7 0.068 3.55
8 0.17 3.25
9 0.17 3
10 0.06 2.9
11 0.069 2.78
12 0.003 3.33
13 0.05 3.4
14 0.1 4.05
15 0.1 4
16 0.2 3.74
17 0.355 3.6
18 0.3 3.4
19 0.234 3.401
20 0.1 2
21 0.47 3.47
22 0.58 3.55
23 0.066 3.55
24 0.072 3.4
25 0.07 3.34
26 0.066 3.51
27 0.066 3.5
28 0.066 3.5
29 0.026 2.48
30 0.066 3.55
31 0.066 3.51
32 0.066 3.5
33 0.066 3.5
34 0.294 3.73
35 0.207 3.775
36 0.175 3.905
37 0.16 3.91
38 0.145 3.96
39 0.118 3.905
40 0.14 3.85
41 0.08 3.85
42 0.115 3.8
43 0.11 3.75
44 0.05 3.8
45 0.105 3.75
46 0.17 3.07
47 0 0
48 0.207 3.775
49 0.118 3.905
50 0.25 3.7
51 0.25 3.55
52 0.25 3.55
53 0.25 3.55
54 0 0
55 0 0
56 0.207 3.775
57 0.118 3.905
58 0.17 3.8
59 0.118 3.8
60 0.17 3.8
61 0.118 3.8
62 0.17 3.2
63 0.15 3.65
64 0.207 3.775
65 0 0
66 0.02 2.556
67 0.069 2.78
68 0.2339 3.401
69 0.317 3.624
70 0.433 3.935
71 0.08 3.85
72 0.05 3.8
73 0.17 3
74 0.17 3.8
75 0.118 3.8
76 0.118 3.8
77 0.3 3.4
78 0.08 3.8
79 0.3 3.47
80 0.05 3.8
81 0.266 3.47
82 0.395 3.56
83 0.28 2.93
84 0.16 3.81
85 0.17 3.42
86 0 0
87 0.21 2.96
88 0.17 3.25
89 0.115 3.8
90 0.17 3.8
91 0.066 3.5
92 0.066 3.5
93 0.066 3.5
94 0.06 3.57
95 0.066 3.5
96 0.03 2.5
97 0.076 3.55
98 0.076 3.55
99 0.076 3.55
100 0.03 2.42
101 0.068 3.55
102 0.03 2.42
103 0.068 3.55
104 0.066 3.5
105 0.066 3.5
106 0.076 3.55
107 0.3 3.4
108 0.066 3.5
109 0.03 2.5
110 0.17 3.12
111 0 0
112 0.03 2.5
113 0.066 3.5
114 0.066 3.5
115 0.066 3.5
116 0.17 3.15
117 0.068 3.55
118 0.068 3.55
119 0.17 3.07
120 0 0
121 0.17 3.07
122 0 0
123 0.17 3.07
124 0 0
125 0.066 3.51
126 0.066 3.5
127 0.066 3.5
128 0.026 2.48
129 0.14 2.9
130 0.076 3.55
131 0.14 2.9
132 0.12 2.9
133 0.066 3.5
134 0.066 3.5
135 0.066 3.5
136 0.066 3.5
137 0.026 2.48
138 0.14 2.9
139 0.17 3.07
140 0 0
141 0.066 3.5
142 0.03 2.5
143 0.066 3.5
144 0.03 2.5
145 0.066 3.5
146 0.03 2.5
147 0.066 3.5
148 0.03 2.5
149 0.066 3.5
150 0.066 3.5
151 0.068 3.55
152 0.425 3.6
153 0.25 3.7
154 0.355 3.6
155 0.355 3.6
156 0 0
157 0 0
158 0.066 3.5
159 0.066 3.5
160 0.066 3.5
161 0.066 3.5
162 0.066 3.5
163 0.066 3.5
164 0.066 3.5
165 0.066 3.5
166 0.066 3.5
167 0.066 3.5
168 0.066 3.5
169 0.066 3.5
170 0.066 3.5
171 0.066 3.5
172 0.066 3.5
173 0.068 3.55
174 0.355 3.6
175 0.066 3.5
176 0.066 3.5
177 0.066 3.5
178 0.3 3.4
179 0.076 3.55
180 0.068 3.55
181 0.066 3.5
182 0.066 3.5
183 0.105 3.75
184 0.105 3.75
185 0.105 3.75
186 0.105 3.75
187 0.105 3.75
188 0.21 2.96
189 0.17 3.25
190 0.17 3.25
191 0.17 3.25
192 0 0
193 0 0
194 0.066 3.5
195 0.066 3.5
196 0.066 3.5
197 0.066 3.5
198 0.066 3.5
199 0.105 3.75
200 0.21 2.96
201 0.17 3.25
202 0 0
203 0.17 3.25
204 0.105 3.75
205 0.21 2.96
206 0 0
207 0.02 2.5
208 0.066 3.5
209 0.066 3.5
210 0.066 3.5
211 0.066 3.5
212 0.068 3.55
213 0.15 3.65
214 0.17 3.2
215 0.068 3.55
216 0.3 3.4
217 0.17 3.25
218 0.068 3.55
219 0.105 3.75
220 0.17 3
221 0.21 2.96
222 0 0
223 0.105 3.75
224 0.21 2.96
225 0.066 3.5
226 0.066 3.5
227 0.066 3.5
228 0.066 3.5
229 0.105 3.75
230 0.21 2.96
231 0.03 2.42
232 0.105 3.75
233 0.21 2.96
234 0.015 2.42
235 0.066 3.5
236 0.066 3.5
237 0.066 3.5
238 0.29 3.48
239 0.29 3.48
240 0.29 3.48
241 0 0
242 0 0
243 0.066 3.5
244 0.066 3.5
245 0.066 3.5
246 0.066 3.5
247 0.066 3.5
248 0.066 3.5
249 0.066 3.5
250 0.066 3.5
251 0.066 3.5
252 0.17 3.25
253 0 0
254 0.05 3.55
255 0.17 3.25
256 0 0
257 0.066 3.5
258 0.066 3.5
259 0.066 3.5
260 0.066 3.5
261 0.29 3.48
262 0 0
263 0.17 3.25
264 0.08 3.5
265 0.17 3.25
266 0 0
267 0.08 3.5
268 0.05 2.5
269 0.08 3.5
270 0.05 2.5
271 0.17 3.25
272 0.105 3.75
273 0.17 3.25
274 0.105 3.75
275 0.08 3.5
276 0.08 3.5
277 0 0
278 0.21 2.96
279 0 0
280 0.21 2.96
281 0.05 2.5
282 0.05 2.5
283 0.08 3.5
284 0.05 2.5
285 0.17 3.25
286 0.105 3.75
287 0.17 3.25
288 0.08 3.5
289 0.08 3.5
290 0.08 3.5
291 0 0
292 0.21 2.96
293 0.17 3.25
294 0 0
295 0 0
296 0.05 2.5
297 0.05 2.5
298 0.17 3.25
299 0.08 3.5
300 0.17 3.25
301 0.08 3.5
302 0.08 3.5
303 0.08 3.5
304 0.17 3.25
305 0.08 3.5
306 0.17 3.25
307 0.05 2.5
308 0.17 3.25
309 0 0
310 0 0
311 0.05 2.5
312 0 0
313 0.17 3.25
314 0.08 3.5
315 0.17 3.25
316 0.08 3.5
317 0.08 3.5
318 0.105 3.75
319 0 0
320 0.17 3.25
321 0 0
322 0.21 2.96
323 0.08 3.5
324 0.05 2.5
325 0.08 3.5
326 0.05 2.5
327 0.08 3.5
328 0.05 2.5
329 0.17 3.25
330 0.105 3.75
331 0.17 3.25
332 0.08 3.5
333 0.08 3.5
334 0.08 3.5
335 0 0
336 0.21 2.96
337 0 0
338 0.17 3.25
339 0 0
340 0 0
341 0.05 2.5
342 0.05 2.5
343 0.08 3.5
344 0.05 2.5
345 0.2 3.74
346 0.21 2.96
347 0.17 3
348 0.066 3.55
349 0.08 3.5
350 0.3 3.4
351 0.076 3.55
352 0.71 3.05
353 0.71 4.02
354 0.71 4.28
355 0.71 4.81
356 0.0005 5.34
357 0.0005 2.87
358 0.0005 4.07
359 0.0005 5.17
360 0.0005 5.6
361 0.0005 6.2
362 0.875044 1.64447
363 0.449657 2.41203
364 0.118226 3.10269
365 0.047096 3.81661
366 0.3 4.2
367 0.05 2.5
368 0.5 4.25
369 0.3 4.2
370 0.05 2.5
371 0.25 3.15
372 0.3 4.2
373 0.05 2.5
374 0.15 3.65
375 0.25 3.4
376 0.3 4.2
377 0.05 2.5
378 0.25 3.4
379 0.05 2.5
380 0.3 4.2
381 0.05 2.5
382 0.3 4.2
383 0.05 2.5
384 0 0
385 0.25 3.2
386 0 0
387 0.4 2.81524
388 0.2 3.11815
389 0.066 3.5
390 0.14 2.9
391 0.2 3.74
392 0.2 3.15
393 0.14 2.9
394 0.066 3.5
395 0.03 2.5
396 0.2 3.74
397 0.2 3.15
398 0.14 2.9
399 0.066 3.5
400 0.03 2.5
401 0.2 3.74
402 0.2 3.15
403 0.14 2.9
404 0.066 3.5
405 0.03 2.5
406 0.066 3.5
407 0.03 2.5
408 0.068 3.55
409 0.066 3.5
410 0.03 2.5
411 0.068 3.55
412 0.066 3.5
413 0.03 2.5
414 0.068 3.55
415 0.066 3.5
416 0.105 3.75
417 0.14 2.96
418 0.12 3
419 0.066 3.5
420 0.026 2.48
421 0.105 3.75
422 0.105 3.75
423 0.068 3.55
424 0.17 3
425 0.25 3.55
426 0.17 2.96
427 0.066 3.5
428 0.03 2.5
429 0.17 3.25
430 0 0
431 0.17 3.25
432 0 0
433 0.066 3.5
434 0.03 2.5
435 0.066 3.5
436 0.03 2.5
437 0.066 3.5
438 0.03 2.5
439 0.068 3.55
440 0.068 3.55
441 0.066 3.5
442 0.066 3.5
443 0.066 3.5
444 0.25 3.55
445 0.17 2.96
446 0.395 3.56
447 0.395 3.56
448 0.28 2.93
449 0.066 3.5
450 0.066 3.5
451 0.07 3.55
452 0.07 3.55
453 0.07 3.55
454 0.17 3.25
455 0 0
456 0.066 3.5
457 0.07 3.55
458 0.07 3.55
459 0.07 3.55
460 0.07 3.55
461 0.07 3.55
462 0.17 3.25
463 0.17 3.25
464 0 0
465 0.07 3.55
466 0.066 3.5
467 0.066 3.5
468 0.076 3.55
469 0.076 3.55
470 0.068 3.55
471 0.17 3.25
472 0.07 3.55
473 0.07 3.55
474 0.07 3.55
475 0.03 2.42
476 0.03 2.42
477 0.03 2.42
478 0.17 3.25
479 0.07 3.55
480 0.03 2.42
481 0.17 3.25
482 0.07 3.55
483 0.07 3.55
484 0.07 3.55
485 0.03 2.42
486 0.03 2.42
487 0.03 2.42
488 0.17 3.25
489 0.07 3.55
490 0.07 3.55
491 0.03 2.42
492 0.03 2.42
493 0.17 3.25
494 0.07 3.55
495 0.07 3.55
496 0 0
497 0.03 2.42
498 0.03 2.42
499 0.17 3.25
500 0.17 3.25
501 0.07 3.55
502 0.07 3.55
503 0.07 3.55
504 0 0
505 0.03 2.42
506 0.03 2.42
507 0.03 2.42
508 0.17 3.25
509 0.07 3.55
510 0.17 3.25
511 0.07 3.55
512 0.07 3.55
513 0 0
514 0.03 2.42
515 0.03 2.42
516 0.03 2.42
517 0.14 2.9
518 0.07 3.55
519 0.076 3.55
520 0.03 2.42
521 0.03 2.42
522 0.14 2.9
523 0.07 3.55
524 0.17 3.25
525 0.07 3.55
526 0.07 3.55
527 0.03 2.42
528 0.03 2.42
529 0.03 2.42
530 0.14 2.9
531 0.17 3.25
532 0.07 3.55
533 0.07 3.55
534 0.07 3.55
535 0.03 2.42
536 0.03 2.42
537 0.03 2.42
538 0.17 3.25
539 0.07 3.55
540 0.07 3.55
541 0.07 3.55
542 0.07 3.55
543 0.07 3.55
544 0.07 3.55
545 0.07 3.55
546 0.07 3.55
547 0 0
548 0.03 2.42
549 0.03 2.42
550 0.03 2.42
551 0.03 2.42
552 0.03 2.42
553 0.03 2.42
554 0.17 3.25
555 0.07 3.55
556 0.07 3.55
557 0.07 3.55
558 0.07 3.55
559 0.07 3.55
560 0.07 3.55
561 0.07 3.55
562 0.07 3.55
563 0.07 3.55
564 0.03 2.42
565 0.03 2.42
566 0.03 2.42
567 0.03 2.42
568 0.03 2.42
569 0.03 2.42
570 0.03 2.42
571 0.17 3.25
572 0.07 3.55
573 0.17 3.25
574 0.07 3.55
575 0.07 3.55
576 0.07 3.55
577 0.17 3.25
578 0.07 3.55
579 0.17 3.25
580 0.03 2.42
581 0.03 2.42
582 0.03 2.42
583 0 0
584 0.355 3.6
585 0.07 3.55
586 0.17 3.25
587 0.07 3.55
588 0.07 3.55
589 0.03 2.42
590 0.03 2.42
591 0.03 2.42
592 0.17 3.25
593 0.07 3.55
594 0.03 2.42
595 0.07 3.55
596 0.066 3.5
597 0.17 3.25
598 0.07 3.55
599 0.07 3.55
600 0.07 3.55
601 0.07 3.55
602 0.07 3.55
603 0.07 3.55
604 0.03 2.42
605 0.03 2.42
606 0.03 2.42
607 0.03 2.42
608 0.17 3.25
609 0.07 3.55
610 0.17 3.25
611 0.07 3.55
612 0.07 3.55
613 0.066 3.5
614 0.03 2.42
615 0.03 2.42
616 0.03 2.42
617 0.03 2.5
618 0.066 3.5
619 0.066 3.5
620 0.066 3.5
621 0.066 3.5
622 0.066 3.5
623 0.066 3.5
624 0.066 3.5
625 0.066 3.5
626 0.066 3.5
627 0.066 3.5
628 0.066 3.5
629 0.066 3.5
630 0.066 3.5
631 0.066 3.5
632 0.066 3.5
633 0.425 3.6
634 0 0
635 0.07 3.55
636 0.105 3.75
637 0.17 3.25
638 0.066 3.5
639 0.066 3.5
640 0.066 3.5
641 0.07 3.55
642 0.07 3.55
643 0.07 3.55
644 0.07 3.55
645 0.07 3.55
646 0.07 3.55
647 0.355 3.6
648 0.054 3.473
649 0.05 3.3
650 0.05 3.3
651 0.076 3.55
652 0.066 3.5
653 0.03 2.5
654 0.06 3.75
655 0.054 3.473
656 0.05 3.3
657 0.05 3.3
658 0.04 2.95
659 0.076 3.55
660 0.3 3.4
661 0.03 2.42
662 0.088 3.43
663 0.088 3.43
664 0.088 3.43
665 0.077 3.47
666 0.077 3.47
667 0.077 3.47
668 0.068 3.55
669 0.061 2.85
670 0.068 3.55
671 0.061 2.85
672 0.47 3.47
673 0.118 3.905
674 0.068 3.55
675 0.062 3.25
676 0.061 2.94
677 0.068 3.55
678 0.061 2.85
679 0.068 3.55
680 0.45 3.47
681 0.068 3.55
682 0.58 3.8
683 0.066 3.5
684 0.425 3.6
685 0.068 3.55
686 0.068 3.55
687 0.068 3.55
688 0.068 3.55
689 0.068 3.55
690 0.03 2.42
691 0.03 2.42
692 0.05 3.55
693 0.17 3.25
694 0 0
695 0 0
696 0.03 2.42
697 0.066 3.5
698 0.066 3.5
699 0.17 3.25
700 0.17 3.25
701 0.17 3.25
702 0.05 3.55
703 0.17 3.2
704 0.066 3.3
705 0.066 3.3
706 0.066 3.3
707 0.066 3.3
708 0.066 3.3
709 0.015 2.5
710 0.12 3.25
711 0.17 2.96
712 0.066 3.5
713 0.015 2.5
714 0.066 3.5
715 0.066 3.5
716 0.066 3.5
717 0.12 3.25
718 0.068 3.55
719 0.066 3.3
720 0.17 3.25
721 0.21 2.96
722 0.105 3.75
723 0.17 3
724 0.066 3.5
725 0.066 3.5
726 0.066 3.5
727 0.015 2.42
728 0.015 2.42
729 0.015 2.42
730 0.14 2.9
731 0.2 3.74
732 0.066 3.5
733 0.066 3.5
734 0.03 2.5
735 0.2 3.74
736 0.061 3.1181
737 0.17 3.15
738 0.21 2.86
739 0.066 3.5
740 0.068 3.55
741 0.062 3.25
742 0.061 2.94
743 0.068 3.55
744 0.03 2.5
745 0.06 3.57
746 0.026 2.48
747 0.17 3.3
748 0.17 3.3
749 0.17 3.3
750 0.066 3.5
751 0.066 3.5
752 0.066 3.5
753 0.066 3.5
754 0.066 3.5
755 0.066 3.5
756 0 0
757 0 0
758 0.015 2.5
759 0.066 3.5
760 0.066 3.5
761 0.066 3.5
762 0.066 3.5
763 0.068 3.55
764 0.068 3.55
765 0.068 3.55
766 0.066 3.5
767 0.066 3.5
768 0.066 3.5
769 0.066 3.5
770 0.066 3.5
771 0.066 3.5
772 0.11 3.5
773 0.015 2.42
774 0.066 3.55
775 0.066 3.51
776 0.066 3.5
777 0.066 3.5
778 0.066 3.5
779 0.066 3.5
780 0.066 3.5
781 0.17 3.12
782 0 0
783 0.17 3.25
784 0.17 3.25
785 0.17 3.25
786 0.21 3.3
787 0.29 3.48
788 0 0
789 0.066 3.5
790 0.066 3.5
791 0.066 3.5
792 0.066 3.5
793 0.07 3.55
794 0.076 3.55
795 0.07 3.55
796 0.07 3.55
797 0.03 2.5
798 0.066 3.5
799 0.105 3.75
800 0.29 3.48
801 0.21 2.96
802 0 0
803 0.061 2.94
804 0.066 3.5
805 0.03 2.5
806 0.066 3.5
807 0.066 3.5
808 0.066 3.5
809 0.066 3.5
810 0.066 3.5
811 0.097 3.5
812 0.053 2.95
813 0.062 3.25
814 0.03 2.5
815 0.066 3.5
816 0.066 3.5
817 0.3 3.4
818 0.066 3.5
819 0.03 2.5
820 0.066 3.5
821 0.066 3.5
822 0.47 3.47
823 0.066 3.5
824 0.03 2.5
825 0.066 3.5
826 0.066 3.5
827 0.061 2.94
828 0.3 3.4
829 0.47 3.47
830 0.068 3.55
831 0.14 2.9
832 0.066 3.5
833 0.06 2.9
834 0.17 3.25
835 0.068 3.55
836 0.066 3.5
837 0.105 3.75
838 0.105 3.75
839 0.21 2.96
840 0.17 3.25
841 0 0
842 0.17 3.12
843 0 0
844 0.066 3.5
845 0.066 3.5
846 0.07 3.55
847 0.07 3.55
848 0.07 3.55
849 0.07 3.55
850 0.068 3.55
851 0.0125 1.96
852 0 0
853 0 0
854 0 0
855 0.068 3.55
856 0.3 3.4
857 0.066 3.5
858 0.066 3.5
859 0.066 3.5
860 0.6 3.75
861 0.03 2.5
862 0.068 3.55
863 0.47 3.47
864 0.068 3.55
865 0.6 3.75
866 0.17 3.25
867 0.068 3.55
868 0.14 2.9
869 0.066 3.5
870 0.066 3.5
871 0.066 3.5
872 0.03 2.5
873 0.068 3.55
874 0.17 3.25
875 0.068 3.55
876 0.105 3.75
877 0.21 2.96
878 0.17 3.25
879 0.066 3.5
880 0.066 3.5
881 0.066 3.5
882 0.066 3.5
883 0.015 2.42
884 0.105 3.75
885 0.21 2.96
886 0.015 2.42
887 0.066 3.5
888 0.066 3.5
889 0.066 3.5
890 0.066 3.5
891 0.066 3.5
892 0.066 3.5
893 0.066 3.5
894 0.066 3.5
895 0.066 3.5
896 0.066 3.5
897 0.1 4
898 0.1 4
899 0.1 4
900 0.1 4
901 0.03 2.5
902 0.066 3.5
903 0.066 3.5
904 0.066 3.5
905 0.066 3.5
906 0.07 3.55
907 0.1 4
908 0.1 4
909 0.1 4
910 0.17 3.12
911 0 0
912 0.1 4
913 0.1 4
914 0.1 4
915 0.14 2.9
916 0.1 4
917 0.1 4
918 0.1 4
919 0.1 4
920 0.1 4
921 0.1 4
922 0.07 3.55
923 0.03 2.42
924 0.07 3.55
925 0.03 2.42
926 0.72 3.08
927 0.11779 4.18
928 0.09 4.51
929 0.07 5.15
930 0.018279 2.7
931 0.002772 3.35
932 0.000328 4.06
933 0.000171 4.32
934 8.1e-05 4.82
935 0.875044 2.91
936 0.449657 3.47
937 0.118226 3.82
938 0.047096 4.18
939 0.066 3.5
940 0.066 3.5
941 0.066 3.5
942 0.066 3.5
943 0.03 2.5
944 0.29 3.48
945 0.068 3.55
946 0.29 3.48
947 0.068 3.55
948 0.076 3.55
949 0.076 3.55
950 0.03 2.42
951 0.086 3.3
952 0.086 3.3
953 0.086 3.3
954 0.086 3.3
955 0.086 3.3
956 0.21 2.96
957 0.06762 2.62
958 0.188814 2.93
959 0.066 3.5
960 0.355 3.6
961 0.07 3.55
962 0.17 3.25
963 0.07 3.55
964 0.07 3.55
965 0.03 2.42
966 0.03 2.42
967 0.066 3.5
968 0.062 3.25
969 0.17 3.07
970 0 0
971 0.061 2.94
972 0.03 2.5
973 0.088 3.43
974 0.076 3.55
975 0.088 3.43
976 0.11 3.5
977 0.102 3.188
978 0 0
979 0.16275 3.16435
980 0 0
981 0 1
982 0.178 3.097
983 0 1
984 0 1
985 0.1553 3.166
986 0.1553 3.166
987 0 0
988 0 0
989 0.2128 3.16655
990 0 0
991 0 1.7818
992 0.066 3.5
993 0.066 3.5
994 0.03 2.5
995 0.0262906 2.5
996 0.076 3.55
997 0.03 2.42
998 0.076 3.55
999 0.076 3.55
1000 0.17 3.12
1001 0 1
1002 0.17 3.07
1003 0 0
1004 0.17 3.07
1005 0 0
1006 0.076 3.55
1007 0.08 3.5
1008 0.08 3.5
1009 0.08 3.5
1010 0.08 3.5
1011 0.08 3.5
1012 0.08 3.5
1013 0.08 3.5
1014 0.076 3.55
1015 0.105 3.1875
1016 0.168 3.108
1017 0.17 2.55
1018 0.076 3.55
1019 0.076 3.55
1020 0.076 3.55
1021 0.015 2.42
1022 0.086 3.3
1023 0.086 3.3
1024 0.086 3.3

Bond Coeffs # harmonic

1 5450 1.1
2 317 1.495
3 388 1.459
4 546 1.352
5 546 1.352
6 317 1.495
7 546 1.352
8 340 1.08
9 320 1.486
10 385 1.46
11 385 1.38
12 385 1.46
13 385 1.46
14 385 1.46
15 385 1.46
16 385 1.46
17 385 1.46
18 385 1.46
19 427 1.381
20 483 1.339
21 385 1.42
22 532.8 1.084
23 260 1.526
24 260 1.526
25 317 1.51
26 317 1.504
27 317 1.51
28 260 1.526
29 367 1.38
30 337 1.463
31 367 1.471
32 382 1.448
33 337 1.449
34 386 1.425
35 320 1.425
36 222 1.81
37 222 1.81
38 260 1.526
39 260 1.526
40 317 1.51
41 337 1.463
42 367 1.471
43 382 1.448
44 337 1.449
45 337 1.475
46 386 1.425
47 320 1.425
48 222 1.81
49 222 1.81
50 317 1.5
51 317 1.5
52 530 1.34
53 317 1.5
54 317 1.5
55 317 1.5
56 317 1.5
57 530 1.34
58 530 1.34
59 317 1.5
60 317 1.5
61 530 1.34
62 530 1.34
63 530 1.34
64 385 1.46
65 317 1.51
66 400 1.426
67 385 1.46
68 340 1.08
69 340 1.08
70 481 1.34
71 415 1.428
72 457 1.29
73 481 1.34
74 300 1.87
75 469 1.4
76 427 1.433
77 469 1.4
78 469 1.404
79 469 1.4
80 469 1.4
81 427 1.433
82 427 1.433
83 469 1.4
84 317 1.51
85 546 1.367
86 317 1.49
87 400 1.451
88 300 1.725
89 427 1.433
90 420 1.354
91 367 1.08
92 250 2.08
93 481 1.34
94 400 1.45
95 427 1.381
96 414 1.391
97 483 1.339
98 400 1.46
99 481 1.34
100 382 1.385
101 400 1.41
102 427 1.381
103 450 1.364
104 450 1.364
105 220 1.78
106 250 1.74
107 250 1.76
108 469 1.4
109 520 1.37
110 469 1.4
111 447 1.419
112 317 1.51
113 520 1.41
114 436 1.374
115 414 1.391
116 461 1.354
117 436 1.374
118 340 1.36
119 520 1.37
120 512 1.375
121 518 1.371
122 317 1.504
123 512 1.375
124 518 1.371
125 422 1.385
126 410 1.394
127 469 1.4
128 469 1.4
129 469 1.4
130 529 1.304
131 440 1.371
132 268 1.529
133 367 1.332
134 410 1.394
135 427 1.381
136 260 1.526
137 382 1.448
138 337 1.449
139 337 1.475
140 386 1.425
141 320 1.425
142 502 1.324
143 549 1.35
144 549 1.35
145 448 1.365
146 367 1.08
147 340 1.08
148 440 1.371
149 529 1.304
150 440 1.371
151 300 1.9
152 549 1.34
153 549 1.34
154 317 1.51
155 317 1.51
156 400 1.426
157 300 1.725
158 420 1.34
159 367 1.08
160 340 1.08
161 340 1.08
162 250 2.08
163 448 1.365
164 483 1.339
165 427 1.381
166 448 1.365
167 450 1.37
168 450 1.37
169 250 1.76
170 428 1.38
171 260 1.526
172 260 1.526
173 337 1.475
174 320 1.38
175 385 1.46
176 546 1.38
177 278 1.496
178 367 1.08
179 477 1.343
180 488 1.335
181 481 1.38
182 278 1.366
183 340 1.356
184 250 1.71
185 250 1.74
186 220 1.763
187 250 1.74
188 367 1.08
189 367 1.08
190 481 1.34
191 502 1.324
192 427 1.381
193 300 1.87
194 520 1.37
195 300 1.725
196 420 1.354
197 367 1.08
198 367 1.08
199 250 2.08
200 481 1.34
201 477 1.343
202 488 1.335
203 461 1.354
204 477 1.343
205 477 1.343
206 250 1.76
207 250 1.76
208 300 1.87
209 469 1.424
210 469 1.424
211 317 1.495
212 546 1.367
213 300 1.725
214 420 1.354
215 367 1.08
216 250 2.08
217 400 1.29
218 245 1.945
219 532.8 1.46
220 260 1.526
221 260 1.526
222 268 1.529
223 268 1.529
224 317 1.49
225 390 1.47
226 245 1.781
227 367 1.36
228 340 1.09
229 200 2.19
230 337 1.463
231 367 1.471
232 337 1.475
233 337 1.449
234 337 1.475
235 337 1.449
236 375 1.49
237 382 1.448
238 382 1.448
239 390 1.43
240 337 1.449
241 337 1.449
242 337 1.475
243 320 1.41
244 320 1.41
245 212 1.82
246 212 1.843
247 222 1.81
248 222 1.81
249 300 1.87
250 469 1.421
251 469 1.424
252 520 1.37
253 400 1.451
254 300 1.725
255 420 1.354
256 367 1.08
257 250 2.08
258 410 1.32
259 427 1.381
260 300 1.87
261 317 1.504
262 520 1.37
263 300 1.725
264 420 1.354
265 367 1.08
266 367 1.08
267 250 2.08
268 410 1.394
269 300 1.87
270 549 1.365
271 481 1.454
272 481 1.454
273 278 1.488
274 512 1.375
275 317 1.465
276 300 1.725
277 420 1.354
278 367 1.08
279 367 1.08
280 250 2.08
281 427 1.381
282 410 1.394
283 481 1.385
284 427 1.381
285 340 1.36
286 340 1.36
287 250 1.74
288 250 1.74
289 317 1.504
290 520 1.37
291 367 1.08
292 427 1.381
293 280 1.473
294 280 1.51
295 260 1.52
296 400 1.436
297 340 1.088
298 382 1.448
299 337 1.449
300 337 1.449
301 260 1.445
302 222 1.81
303 330 1.784
304 1150 1.21
305 330 1.637
306 450 1.279
307 650 1.157
308 300 1.685
309 317 1.522
310 490 1.335
311 570 1.229
312 549 1.365
313 385 1.46
314 317 1.51
315 400 1.444
316 549 1.345
317 340 1.08
318 340 1.08
319 457 1.29
320 300 1.98
321 317 1.522
322 317 1.522
323 400 1.49
324 447 1.419
325 469 1.4
326 317 1.522
327 410 1.444
328 410 1.444
329 317 1.522
330 400 1.49
331 400 1.49
332 400 1.444
333 300 1.79
334 350 1.51
335 420 1.357
336 457 1.29
337 418 1.388
338 457 1.358
339 490 1.335
340 317 1.522
341 400 1.29
342 490 1.335
343 424 1.383
344 656 1.25
345 450 1.364
346 214 1.327
347 570 1.229
348 400 1.64
349 700 1.305
350 700 1.168
351 340 0.3
352 300 0.3
353 367 0.3
354 340 0.3
355 340 0.3
356 340 0.3
357 300 0.3
358 340 0.3
359 340 0.3
360 300 0.3
361 340 0.3
362 340 0.3
363 340 0.1
364 340 0.1
365 340 0.1
366 300 0.3
367 340 0.3
368 367 0.3
369 367 0.3