LAMMPS (10 Sep 2025)
Reading data file ...
  orthogonal box = (2 0 0) to (3700 1400 1400)
  1 by 1 by 1 MPI processor grid
  reading atoms ...
  330 atoms
ERROR: Did not assign all atoms correctly
For more information see https://docs.lammps.org/err0016 (../read_data.cpp:1600)
Last input line: read_data system.data extra/bond/per/atom 20 extra/special/per/atom 20
