LAMMPS (10 Sep 2025)
# Simulation I: shock through uniform N2 + n-dodecane mixture
units           real
atom_style      full
boundary        p p p

# READ THE DATA FILE HERE
include         system.in.init
units real
atom_style full
bond_style harmonic
angle_style harmonic
dihedral_style opls
improper_style cvff  #("harmonic" also works but coeffs should be 2x larger)
# NOTE: in the original oplsaa2008.lt file the pair style was
#   lj/cut/coul/long 11.0 11.0
# but with an accompanying note stating that OPLSAA/M (2015)
# uses a different pair style, the one used here
# (as I trusted the original author)
pair_style lj/charmm/coul/long 9.0 11.0
pair_modify mix geometric
special_bonds lj/coul 0.0 0.0 0.5
kspace_style pppm 0.0001
units           real
atom_style      full
boundary        p p p
pair_style      lj/cut/coul/cut 13.0 30.0
pair_modify     mix geometric
special_bonds   lj/coul 0.0 0.0 0.5
bond_style      harmonic
angle_style     harmonic
dihedral_style  opls
improper_style  cvff
neighbor        3.0 bin
neigh_modify    every 1 delay 0 check yes
read_data system_fixed.data extra/bond/per/atom 20 extra/special/per/atom 20
Reading data file ...
  orthogonal box = (2 0 0) to (3700 1400 1400)
  1 by 1 by 1 MPI processor grid
  reading atoms ...
  2140 atoms
  scanning bonds ...
  24 = max bonds/atom
  scanning angles ...
  6 = max angles/atom
  scanning dihedrals ...
  9 = max dihedrals/atom
  orthogonal box = (2 0 0) to (3700 1400 1400)
  1 by 1 by 1 MPI processor grid
  reading bonds ...
  1250 bonds
  reading angles ...
  720 angles
  reading dihedrals ...
  990 dihedrals
Finding 1-2 1-3 1-4 neighbors ...
  special bond factors lj:    0        0        0.5     
  special bond factors coul:  0        0        0.5     
     4 = max # of 1-2 neighbors
     6 = max # of 1-3 neighbors
    12 = max # of 1-4 neighbors
    36 = max # of special neighbors
  special bonds CPU = 0.001 seconds
  read_data CPU = 0.019 seconds

# Moltemplate created 1000+ types from full OPLSAA
# We need to accommodate ALL types even though we only use a few
#create_box      1100 box                 #bond/types 500                 #angle/types 1500                 #dihedral/types 1500 		#improper/types 10                 #extra/bond/per/atom 20                 #extra/special/per/atom 20

# Include force field parameters generated by moltemplate
include         system.in.settings
pair_coeff  1  1  0.073856  3.29013
bond_coeff  1  5450.0  1.10
pair_coeff 2 2 0.030 2.460
pair_coeff 3 3 0.020 2.556
pair_coeff 4 4 0.018 2.126
pair_coeff 5 5 0.05 3.25
pair_coeff 6 6 0.05 3.60
pair_coeff 7 7 0.068 3.550
pair_coeff 8 8 0.170 3.250
pair_coeff 9 9 0.170 3.000
pair_coeff 10 10 0.060 2.900
pair_coeff 11 11 0.069 2.780
pair_coeff 12 12 0.003 3.330
pair_coeff 13 13 0.05 3.40
pair_coeff 14 14 0.10 4.05
pair_coeff 15 15 0.10 4.00
pair_coeff 16 16 0.200 3.740
pair_coeff 17 17 0.355 3.600
pair_coeff 18 18 0.300 3.400
pair_coeff 19 19 0.234 3.401
pair_coeff 20 20 0.100 2.0
pair_coeff 21 21 0.470 3.470
pair_coeff 22 22 0.58 3.55
pair_coeff 23 23 0.066 3.550
pair_coeff 24 24 0.072 3.400
pair_coeff 25 25 0.070 3.340
pair_coeff 26 26 0.066 3.510
pair_coeff 27 27 0.066 3.500
pair_coeff 28 28 0.066 3.500
pair_coeff 29 29 0.026 2.480
pair_coeff 30 30 0.066 3.550
pair_coeff 31 31 0.066 3.510
pair_coeff 32 32 0.066 3.500
pair_coeff 33 33 0.066 3.500
pair_coeff 34 34 0.294 3.730
pair_coeff 35 35 0.207 3.775
pair_coeff 36 36 0.175 3.905
pair_coeff 37 37 0.160 3.910
pair_coeff 38 38 0.145 3.960
pair_coeff 39 39 0.118 3.905
pair_coeff 40 40 0.140 3.850
pair_coeff 41 41 0.080 3.850
pair_coeff 42 42 0.115 3.800
pair_coeff 43 43 0.110 3.750
pair_coeff 44 44 0.050 3.800
pair_coeff 45 45 0.105 3.750
pair_coeff 46 46 0.170 3.070
pair_coeff 47 47 0.0 0.0
pair_coeff 48 48 0.207 3.775
pair_coeff 49 49 0.118 3.905
pair_coeff 50 50 0.250 3.700
pair_coeff 51 51 0.250 3.550
pair_coeff 52 52 0.250 3.550
pair_coeff 53 53 0.250 3.550
pair_coeff 54 54 0.0 0.0
pair_coeff 55 55 0.0 0.0
pair_coeff 56 56 0.207 3.775
pair_coeff 57 57 0.118 3.905
pair_coeff 58 58 0.170 3.800
pair_coeff 59 59 0.118 3.800
pair_coeff 60 60 0.170 3.800
pair_coeff 61 61 0.118 3.800
pair_coeff 62 62 0.170 3.200
pair_coeff 63 63 0.150 3.650
pair_coeff 64 64 0.207 3.775
pair_coeff 65 65 0.0 0.0
pair_coeff 66 66 0.020 2.556
pair_coeff 67 67 0.069 2.780
pair_coeff 68 68 0.2339 3.401
pair_coeff 69 69 0.3170 3.624
pair_coeff 70 70 0.4330 3.935
pair_coeff 71 71 0.080 3.850
pair_coeff 72 72 0.050 3.800
pair_coeff 73 73 0.170 3.000
pair_coeff 74 74 0.170 3.800
pair_coeff 75 75 0.118 3.800
pair_coeff 76 76 0.118 3.800
pair_coeff 77 77 0.300 3.400
pair_coeff 78 78 0.080 3.800
pair_coeff 79 79 0.300 3.470
pair_coeff 80 80 0.050 3.800
pair_coeff 81 81 0.266 3.470
pair_coeff 82 82 0.395 3.56
pair_coeff 83 83 0.280 2.93
pair_coeff 84 84 0.160 3.81
pair_coeff 85 85 0.170 3.42
pair_coeff 86 86 0.0 0.0
pair_coeff 87 87 0.210 2.960
pair_coeff 88 88 0.170 3.250
pair_coeff 89 89 0.115 3.800
pair_coeff 90 90 0.170 3.80
pair_coeff 91 91 0.066 3.500
pair_coeff 92 92 0.066 3.500
pair_coeff 93 93 0.066 3.500
pair_coeff 94 94 0.060 3.570
pair_coeff 95 95 0.066 3.500
pair_coeff 96 96 0.030 2.500
pair_coeff 97 97 0.076 3.550
pair_coeff 98 98 0.076 3.550
pair_coeff 99 99 0.076 3.550
pair_coeff 100 100 0.030 2.420
pair_coeff 101 101 0.068 3.550
pair_coeff 102 102 0.030 2.420
pair_coeff 103 103 0.068 3.550
pair_coeff 104 104 0.066 3.500
pair_coeff 105 105 0.066 3.500
pair_coeff 106 106 0.076 3.550
pair_coeff 107 107 0.300 3.400
pair_coeff 108 108 0.066 3.500
pair_coeff 109 109 0.030 2.500
pair_coeff 110 110 0.170 3.120
pair_coeff 111 111 0.0 0.0
pair_coeff 112 112 0.030 2.500
pair_coeff 113 113 0.066 3.500
pair_coeff 114 114 0.066 3.500
pair_coeff 115 115 0.066 3.500
pair_coeff 116 116 0.170 3.150
pair_coeff 117 117 0.068 3.550
pair_coeff 118 118 0.068 3.550
pair_coeff 119 119 0.170 3.070
pair_coeff 120 120 0.0 0.0
pair_coeff 121 121 0.170 3.070
pair_coeff 122 122 0.0 0.0
pair_coeff 123 123 0.170 3.070
pair_coeff 124 124 0.0 0.0
pair_coeff 125 125 0.066 3.510
pair_coeff 126 126 0.066 3.500
pair_coeff 127 127 0.066 3.500
pair_coeff 128 128 0.026 2.480
pair_coeff 129 129 0.140 2.900
pair_coeff 130 130 0.076 3.550
pair_coeff 131 131 0.140 2.900
pair_coeff 132 132 0.120 2.900
pair_coeff 133 133 0.066 3.500
pair_coeff 134 134 0.066 3.500
pair_coeff 135 135 0.066 3.500
pair_coeff 136 136 0.066 3.500
pair_coeff 137 137 0.026 2.480
pair_coeff 138 138 0.140 2.900
pair_coeff 139 139 0.170 3.070
pair_coeff 140 140 0.0 0.0
pair_coeff 141 141 0.066 3.500
pair_coeff 142 142 0.030 2.500
pair_coeff 143 143 0.066 3.500
pair_coeff 144 144 0.030 2.500
pair_coeff 145 145 0.066 3.500
pair_coeff 146 146 0.030 2.500
pair_coeff 147 147 0.066 3.500
pair_coeff 148 148 0.030 2.500
pair_coeff 149 149 0.066 3.500
pair_coeff 150 150 0.066 3.500
pair_coeff 151 151 0.068 3.550
pair_coeff 152 152 0.425 3.600
pair_coeff 153 153 0.250 3.700
pair_coeff 154 154 0.355 3.600
pair_coeff 155 155 0.355 3.600
pair_coeff 156 156 0.0 0.0
pair_coeff 157 157 0.0 0.0
pair_coeff 158 158 0.066 3.500
pair_coeff 159 159 0.066 3.500
pair_coeff 160 160 0.066 3.500
pair_coeff 161 161 0.066 3.500
pair_coeff 162 162 0.066 3.500
pair_coeff 163 163 0.066 3.500
pair_coeff 164 164 0.066 3.500
pair_coeff 165 165 0.066 3.500
pair_coeff 166 166 0.066 3.500
pair_coeff 167 167 0.066 3.500
pair_coeff 168 168 0.066 3.500
pair_coeff 169 169 0.066 3.500
pair_coeff 170 170 0.066 3.500
pair_coeff 171 171 0.066 3.500
pair_coeff 172 172 0.066 3.500
pair_coeff 173 173 0.068 3.550
pair_coeff 174 174 0.355 3.600
pair_coeff 175 175 0.066 3.500
pair_coeff 176 176 0.066 3.500
pair_coeff 177 177 0.066 3.500
pair_coeff 178 178 0.300 3.400
pair_coeff 179 179 0.076 3.550
pair_coeff 180 180 0.068 3.550
pair_coeff 181 181 0.066 3.500
pair_coeff 182 182 0.066 3.500
pair_coeff 183 183 0.105 3.750
pair_coeff 184 184 0.105 3.750
pair_coeff 185 185 0.105 3.750
pair_coeff 186 186 0.105 3.750
pair_coeff 187 187 0.105 3.750
pair_coeff 188 188 0.210 2.960
pair_coeff 189 189 0.170 3.250
pair_coeff 190 190 0.170 3.250
pair_coeff 191 191 0.170 3.250
pair_coeff 192 192 0.0 0.0
pair_coeff 193 193 0.0 0.0
pair_coeff 194 194 0.066 3.500
pair_coeff 195 195 0.066 3.500
pair_coeff 196 196 0.066 3.500
pair_coeff 197 197 0.066 3.500
pair_coeff 198 198 0.066 3.500
pair_coeff 199 199 0.105 3.750
pair_coeff 200 200 0.210 2.960
pair_coeff 201 201 0.170 3.250
pair_coeff 202 202 0.0 0.0
pair_coeff 203 203 0.170 3.250
pair_coeff 204 204 0.105 3.750
pair_coeff 205 205 0.210 2.960
pair_coeff 206 206 0.000 0.000
pair_coeff 207 207 0.020 2.500
pair_coeff 208 208 0.066 3.500
pair_coeff 209 209 0.066 3.500
pair_coeff 210 210 0.066 3.500
pair_coeff 211 211 0.066 3.500
pair_coeff 212 212 0.068 3.550
pair_coeff 213 213 0.150 3.650
pair_coeff 214 214 0.170 3.200
pair_coeff 215 215 0.068 3.550
pair_coeff 216 216 0.300 3.400
pair_coeff 217 217 0.170 3.250
pair_coeff 218 218 0.068 3.550
pair_coeff 219 219 0.105 3.750
pair_coeff 220 220 0.170 3.000
pair_coeff 221 221 0.210 2.960
pair_coeff 222 222 0.0 0.0
pair_coeff 223 223 0.105 3.750
pair_coeff 224 224 0.210 2.960
pair_coeff 225 225 0.066 3.500
pair_coeff 226 226 0.066 3.500
pair_coeff 227 227 0.066 3.500
pair_coeff 228 228 0.066 3.500
pair_coeff 229 229 0.105 3.750
pair_coeff 230 230 0.210 2.960
pair_coeff 231 231 0.030 2.420
pair_coeff 232 232 0.105 3.750
pair_coeff 233 233 0.210 2.960
pair_coeff 234 234 0.015 2.420
pair_coeff 235 235 0.066 3.500
pair_coeff 236 236 0.066 3.500
pair_coeff 237 237 0.066 3.500
pair_coeff 238 238 0.290 3.480
pair_coeff 239 239 0.290 3.480
pair_coeff 240 240 0.290 3.480
pair_coeff 241 241 0.0 0.0
pair_coeff 242 242 0.0 0.0
pair_coeff 243 243 0.066 3.500
pair_coeff 244 244 0.066 3.500
pair_coeff 245 245 0.066 3.500
pair_coeff 246 246 0.066 3.500
pair_coeff 247 247 0.066 3.500
pair_coeff 248 248 0.066 3.500
pair_coeff 249 249 0.066 3.500
pair_coeff 250 250 0.066 3.500
pair_coeff 251 251 0.066 3.500
pair_coeff 252 252 0.170 3.250
pair_coeff 253 253 0.0 0.0
pair_coeff 254 254 0.050 3.550
pair_coeff 255 255 0.170 3.250
pair_coeff 256 256 0.0 0.0
pair_coeff 257 257 0.066 3.500
pair_coeff 258 258 0.066 3.500
pair_coeff 259 259 0.066 3.500
pair_coeff 260 260 0.066 3.500
pair_coeff 261 261 0.290 3.480
pair_coeff 262 262 0.0 0.0
pair_coeff 263 263 0.17 3.25
pair_coeff 264 264 0.08 3.50
pair_coeff 265 265 0.17 3.25
pair_coeff 266 266 0.0 0.0
pair_coeff 267 267 0.08 3.50
pair_coeff 268 268 0.05 2.50
pair_coeff 269 269 0.08 3.50
pair_coeff 270 270 0.05 2.50
pair_coeff 271 271 0.17 3.25
pair_coeff 272 272 0.105 3.75
pair_coeff 273 273 0.17 3.25
pair_coeff 274 274 0.105 3.75
pair_coeff 275 275 0.08 3.50
pair_coeff 276 276 0.08 3.50
pair_coeff 277 277 0.0 0.0
pair_coeff 278 278 0.210 2.96
pair_coeff 279 279 0.0 0.0
pair_coeff 280 280 0.210 2.96
pair_coeff 281 281 0.05 2.50
pair_coeff 282 282 0.05 2.50
pair_coeff 283 283 0.08 3.50
pair_coeff 284 284 0.05 2.50
pair_coeff 285 285 0.17 3.25
pair_coeff 286 286 0.105 3.75
pair_coeff 287 287 0.17 3.25
pair_coeff 288 288 0.08 3.50
pair_coeff 289 289 0.08 3.50
pair_coeff 290 290 0.08 3.50
pair_coeff 291 291 0.0 0.0
pair_coeff 292 292 0.21 2.96
pair_coeff 293 293 0.17 3.25
pair_coeff 294 294 0.0 0.0
pair_coeff 295 295 0.0 0.0
pair_coeff 296 296 0.05 2.50
pair_coeff 297 297 0.05 2.50
pair_coeff 298 298 0.17 3.25
pair_coeff 299 299 0.08 3.50
pair_coeff 300 300 0.17 3.25
pair_coeff 301 301 0.08 3.50
pair_coeff 302 302 0.08 3.50
pair_coeff 303 303 0.08 3.50
pair_coeff 304 304 0.17 3.25
pair_coeff 305 305 0.08 3.50
pair_coeff 306 306 0.17 3.25
pair_coeff 307 307 0.05 2.50
pair_coeff 308 308 0.17 3.25
pair_coeff 309 309 0.0 0.0
pair_coeff 310 310 0.0 0.0
pair_coeff 311 311 0.05 2.50
pair_coeff 312 312 0.0 0.0
pair_coeff 313 313 0.17 3.25
pair_coeff 314 314 0.08 3.50
pair_coeff 315 315 0.17 3.25
pair_coeff 316 316 0.08 3.50
pair_coeff 317 317 0.08 3.50
pair_coeff 318 318 0.105 3.75
pair_coeff 319 319 0.0 0.0
pair_coeff 320 320 0.17 3.25
pair_coeff 321 321 0.0 0.0
pair_coeff 322 322 0.21 2.96
pair_coeff 323 323 0.08 3.50
pair_coeff 324 324 0.05 2.50
pair_coeff 325 325 0.08 3.50
pair_coeff 326 326 0.05 2.50
pair_coeff 327 327 0.08 3.50
pair_coeff 328 328 0.05 2.50
pair_coeff 329 329 0.17 3.25
pair_coeff 330 330 0.105 3.75
pair_coeff 331 331 0.17 3.25
pair_coeff 332 332 0.08 3.50
pair_coeff 333 333 0.08 3.50
pair_coeff 334 334 0.08 3.50
pair_coeff 335 335 0.0 0.0
pair_coeff 336 336 0.21 2.96
pair_coeff 337 337 0.0 0.0
pair_coeff 338 338 0.17 3.25
pair_coeff 339 339 0.0 0.0
pair_coeff 340 340 0.0 0.0
pair_coeff 341 341 0.05 2.50
pair_coeff 342 342 0.05 2.50
pair_coeff 343 343 0.08 3.50
pair_coeff 344 344 0.05 2.50
pair_coeff 345 345 0.200 3.740
pair_coeff 346 346 0.210 2.960
pair_coeff 347 347 0.170 3.000
pair_coeff 348 348 0.066 3.550
pair_coeff 349 349 0.08 3.50
pair_coeff 350 350 0.300 3.400
pair_coeff 351 351 0.076 3.550
pair_coeff 352 352 0.71 3.05
pair_coeff 353 353 0.71 4.02
pair_coeff 354 354 0.71 4.28
pair_coeff 355 355 0.71 4.81
pair_coeff 356 356 0.0005 5.34
pair_coeff 357 357 0.0005 2.87
pair_coeff 358 358 0.0005 4.07
pair_coeff 359 359 0.0005 5.17
pair_coeff 360 360 0.0005 5.60
pair_coeff 361 361 0.0005 6.20
pair_coeff 362 362 0.875044 1.644471
pair_coeff 363 363 0.449657 2.412031
pair_coeff 364 364 0.118226 3.102688
pair_coeff 365 365 0.047096 3.816610
pair_coeff 366 366 0.30 4.20
pair_coeff 367 367 0.05 2.50
pair_coeff 368 368 0.50 4.25
pair_coeff 369 369 0.30 4.20
pair_coeff 370 370 0.05 2.50
pair_coeff 371 371 0.25 3.15
pair_coeff 372 372 0.30 4.20
pair_coeff 373 373 0.05 2.50
pair_coeff 374 374 0.15 3.65
pair_coeff 375 375 0.25 3.40
pair_coeff 376 376 0.30 4.20
pair_coeff 377 377 0.05 2.50
pair_coeff 378 378 0.25 3.40
pair_coeff 379 379 0.05 2.50
pair_coeff 380 380 0.30 4.20
pair_coeff 381 381 0.05 2.50
pair_coeff 382 382 0.30 4.20
pair_coeff 383 383 0.05 2.50
pair_coeff 384 384 0.0 0.0
pair_coeff 385 385 0.250 3.200
pair_coeff 386 386 0.0 0.0
pair_coeff 387 387 0.400 2.81524
pair_coeff 388 388 0.200 3.11815
pair_coeff 389 389 0.066 3.50
pair_coeff 390 390 0.140 2.90
pair_coeff 391 391 0.200 3.74
pair_coeff 392 392 0.200 3.15
pair_coeff 393 393 0.140 2.90
pair_coeff 394 394 0.066 3.50
pair_coeff 395 395 0.030 2.50
pair_coeff 396 396 0.200 3.74
pair_coeff 397 397 0.200 3.15
pair_coeff 398 398 0.140 2.90
pair_coeff 399 399 0.066 3.50
pair_coeff 400 400 0.030 2.50
pair_coeff 401 401 0.200 3.74
pair_coeff 402 402 0.200 3.15
pair_coeff 403 403 0.140 2.90
pair_coeff 404 404 0.066 3.50
pair_coeff 405 405 0.030 2.50
pair_coeff 406 406 0.066 3.50
pair_coeff 407 407 0.030 2.50
pair_coeff 408 408 0.068 3.55
pair_coeff 409 409 0.066 3.50
pair_coeff 410 410 0.030 2.50
pair_coeff 411 411 0.068 3.55
pair_coeff 412 412 0.066 3.50
pair_coeff 413 413 0.030 2.50
pair_coeff 414 414 0.068 3.55
pair_coeff 415 415 0.066 3.500
pair_coeff 416 416 0.105 3.750
pair_coeff 417 417 0.140 2.960
pair_coeff 418 418 0.120 3.000
pair_coeff 419 419 0.066 3.500
pair_coeff 420 420 0.026 2.480
pair_coeff 421 421 0.105 3.750
pair_coeff 422 422 0.105 3.750
pair_coeff 423 423 0.068 3.550
pair_coeff 424 424 0.170 3.000
pair_coeff 425 425 0.25 3.55
pair_coeff 426 426 0.17 2.96
pair_coeff 427 427 0.066 3.50
pair_coeff 428 428 0.030 2.50
pair_coeff 429 429 0.170 3.250
pair_coeff 430 430 0.0 0.0
pair_coeff 431 431 0.170 3.250
pair_coeff 432 432 0.0 0.0
pair_coeff 433 433 0.066 3.50
pair_coeff 434 434 0.030 2.50
pair_coeff 435 435 0.066 3.50
pair_coeff 436 436 0.030 2.50
pair_coeff 437 437 0.066 3.50
pair_coeff 438 438 0.030 2.50
pair_coeff 439 439 0.068 3.55
pair_coeff 440 440 0.068 3.55
pair_coeff 441 441 0.066 3.500
pair_coeff 442 442 0.066 3.500
pair_coeff 443 443 0.066 3.500
pair_coeff 444 444 0.25 3.55
pair_coeff 445 445 0.17 2.96
pair_coeff 446 446 0.395 3.56
pair_coeff 447 447 0.395 3.56
pair_coeff 448 448 0.280 2.93
pair_coeff 449 449 0.066 3.500
pair_coeff 450 450 0.066 3.500
pair_coeff 451 451 0.070 3.550
pair_coeff 452 452 0.070 3.550
pair_coeff 453 453 0.070 3.550
pair_coeff 454 454 0.170 3.250
pair_coeff 455 455 0.000 0.000
pair_coeff 456 456 0.066 3.500
pair_coeff 457 457 0.070 3.550
pair_coeff 458 458 0.070 3.550
pair_coeff 459 459 0.070 3.550
pair_coeff 460 460 0.070 3.550
pair_coeff 461 461 0.070 3.550
pair_coeff 462 462 0.170 3.250
pair_coeff 463 463 0.170 3.250
pair_coeff 464 464 0.000 0.000
pair_coeff 465 465 0.070 3.550
pair_coeff 466 466 0.066 3.500
pair_coeff 467 467 0.066 3.500
pair_coeff 468 468 0.076 3.550
pair_coeff 469 469 0.076 3.550
pair_coeff 470 470 0.068 3.550
pair_coeff 471 471 0.170 3.250
pair_coeff 472 472 0.070 3.550
pair_coeff 473 473 0.070 3.550
pair_coeff 474 474 0.070 3.550
pair_coeff 475 475 0.030 2.420
pair_coeff 476 476 0.030 2.420
pair_coeff 477 477 0.030 2.420
pair_coeff 478 478 0.170 3.250
pair_coeff 479 479 0.070 3.550
pair_coeff 480 480 0.030 2.420
pair_coeff 481 481 0.170 3.250
pair_coeff 482 482 0.070 3.550
pair_coeff 483 483 0.070 3.550
pair_coeff 484 484 0.070 3.550
pair_coeff 485 485 0.030 2.420
pair_coeff 486 486 0.030 2.420
pair_coeff 487 487 0.030 2.420
pair_coeff 488 488 0.170 3.250
pair_coeff 489 489 0.070 3.550
pair_coeff 490 490 0.070 3.550
pair_coeff 491 491 0.030 2.420
pair_coeff 492 492 0.030 2.420
pair_coeff 493 493 0.170 3.250
pair_coeff 494 494 0.070 3.550
pair_coeff 495 495 0.070 3.550
pair_coeff 496 496 0.000 0.000
pair_coeff 497 497 0.030 2.420
pair_coeff 498 498 0.030 2.420
pair_coeff 499 499 0.170 3.250
pair_coeff 500 500 0.170 3.250
pair_coeff 501 501 0.070 3.550
pair_coeff 502 502 0.070 3.550
pair_coeff 503 503 0.070 3.550
pair_coeff 504 504 0.000 0.000
pair_coeff 505 505 0.030 2.420
pair_coeff 506 506 0.030 2.420
pair_coeff 507 507 0.030 2.420
pair_coeff 508 508 0.170 3.250
pair_coeff 509 509 0.070 3.550
pair_coeff 510 510 0.170 3.250
pair_coeff 511 511 0.070 3.550
pair_coeff 512 512 0.070 3.550
pair_coeff 513 513 0.000 0.000
pair_coeff 514 514 0.030 2.420
pair_coeff 515 515 0.030 2.420
pair_coeff 516 516 0.030 2.420
pair_coeff 517 517 0.140 2.900
pair_coeff 518 518 0.070 3.550
pair_coeff 519 519 0.076 3.550
pair_coeff 520 520 0.030 2.420
pair_coeff 521 521 0.030 2.420
pair_coeff 522 522 0.140 2.900
pair_coeff 523 523 0.070 3.550
pair_coeff 524 524 0.170 3.250
pair_coeff 525 525 0.070 3.550
pair_coeff 526 526 0.070 3.550
pair_coeff 527 527 0.030 2.420
pair_coeff 528 528 0.030 2.420
pair_coeff 529 529 0.030 2.420
pair_coeff 530 530 0.140 2.900
pair_coeff 531 531 0.170 3.250
pair_coeff 532 532 0.070 3.550
pair_coeff 533 533 0.070 3.550
pair_coeff 534 534 0.070 3.550
pair_coeff 535 535 0.030 2.420
pair_coeff 536 536 0.030 2.420
pair_coeff 537 537 0.030 2.420
pair_coeff 538 538 0.170 3.250
pair_coeff 539 539 0.070 3.550
pair_coeff 540 540 0.070 3.550
pair_coeff 541 541 0.070 3.550
pair_coeff 542 542 0.070 3.550
pair_coeff 543 543 0.070 3.550
pair_coeff 544 544 0.070 3.550
pair_coeff 545 545 0.070 3.550
pair_coeff 546 546 0.070 3.550
pair_coeff 547 547 0.000 0.000
pair_coeff 548 548 0.030 2.420
pair_coeff 549 549 0.030 2.420
pair_coeff 550 550 0.030 2.420
pair_coeff 551 551 0.030 2.420
pair_coeff 552 552 0.030 2.420
pair_coeff 553 553 0.030 2.420
pair_coeff 554 554 0.170 3.250
pair_coeff 555 555 0.070 3.550
pair_coeff 556 556 0.070 3.550
pair_coeff 557 557 0.070 3.550
pair_coeff 558 558 0.070 3.550
pair_coeff 559 559 0.070 3.550
pair_coeff 560 560 0.070 3.550
pair_coeff 561 561 0.070 3.550
pair_coeff 562 562 0.070 3.550
pair_coeff 563 563 0.070 3.550
pair_coeff 564 564 0.030 2.420
pair_coeff 565 565 0.030 2.420
pair_coeff 566 566 0.030 2.420
pair_coeff 567 567 0.030 2.420
pair_coeff 568 568 0.030 2.420
pair_coeff 569 569 0.030 2.420
pair_coeff 570 570 0.030 2.420
pair_coeff 571 571 0.170 3.250
pair_coeff 572 572 0.070 3.550
pair_coeff 573 573 0.170 3.250
pair_coeff 574 574 0.070 3.550
pair_coeff 575 575 0.070 3.550
pair_coeff 576 576 0.070 3.550
pair_coeff 577 577 0.170 3.250
pair_coeff 578 578 0.070 3.550
pair_coeff 579 579 0.170 3.250
pair_coeff 580 580 0.030 2.420
pair_coeff 581 581 0.030 2.420
pair_coeff 582 582 0.030 2.420
pair_coeff 583 583 0.000 0.000
pair_coeff 584 584 0.355 3.600
pair_coeff 585 585 0.070 3.550
pair_coeff 586 586 0.170 3.250
pair_coeff 587 587 0.070 3.550
pair_coeff 588 588 0.070 3.550
pair_coeff 589 589 0.030 2.420
pair_coeff 590 590 0.030 2.420
pair_coeff 591 591 0.030 2.420
pair_coeff 592 592 0.170 3.250
pair_coeff 593 593 0.070 3.550
pair_coeff 594 594 0.030 2.420
pair_coeff 595 595 0.070 3.550
pair_coeff 596 596 0.066 3.500
pair_coeff 597 597 0.170 3.250
pair_coeff 598 598 0.070 3.550
pair_coeff 599 599 0.070 3.550
pair_coeff 600 600 0.070 3.550
pair_coeff 601 601 0.070 3.550
pair_coeff 602 602 0.070 3.550
pair_coeff 603 603 0.070 3.550
pair_coeff 604 604 0.030 2.420
pair_coeff 605 605 0.030 2.420
pair_coeff 606 606 0.030 2.420
pair_coeff 607 607 0.030 2.420
pair_coeff 608 608 0.170 3.250
pair_coeff 609 609 0.070 3.550
pair_coeff 610 610 0.170 3.250
pair_coeff 611 611 0.070 3.550
pair_coeff 612 612 0.070 3.550
pair_coeff 613 613 0.066 3.500
pair_coeff 614 614 0.030 2.420
pair_coeff 615 615 0.030 2.420
pair_coeff 616 616 0.030 2.420
pair_coeff 617 617 0.030 2.500
pair_coeff 618 618 0.066 3.500
pair_coeff 619 619 0.066 3.500
pair_coeff 620 620 0.066 3.500
pair_coeff 621 621 0.066 3.500
pair_coeff 622 622 0.066 3.500
pair_coeff 623 623 0.066 3.500
pair_coeff 624 624 0.066 3.500
pair_coeff 625 625 0.066 3.500
pair_coeff 626 626 0.066 3.500
pair_coeff 627 627 0.066 3.500
pair_coeff 628 628 0.066 3.500
pair_coeff 629 629 0.066 3.500
pair_coeff 630 630 0.066 3.500
pair_coeff 631 631 0.066 3.500
pair_coeff 632 632 0.066 3.500
pair_coeff 633 633 0.425 3.600
pair_coeff 634 634 0.0 0.0
pair_coeff 635 635 0.070 3.550
pair_coeff 636 636 0.105 3.750
pair_coeff 637 637 0.170 3.250
pair_coeff 638 638 0.066 3.500
pair_coeff 639 639 0.066 3.500
pair_coeff 640 640 0.066 3.500
pair_coeff 641 641 0.070 3.550
pair_coeff 642 642 0.070 3.550
pair_coeff 643 643 0.070 3.550
pair_coeff 644 644 0.070 3.550
pair_coeff 645 645 0.070 3.550
pair_coeff 646 646 0.070 3.550
pair_coeff 647 647 0.355 3.600
pair_coeff 648 648 0.054 3.473
pair_coeff 649 649 0.050 3.300
pair_coeff 650 650 0.050 3.300
pair_coeff 651 651 0.076 3.550
pair_coeff 652 652 0.066 3.500
pair_coeff 653 653 0.030 2.500
pair_coeff 654 654 0.060 3.750
pair_coeff 655 655 0.054 3.473
pair_coeff 656 656 0.050 3.300
pair_coeff 657 657 0.050 3.300
pair_coeff 658 658 0.040 2.950
pair_coeff 659 659 0.076 3.550
pair_coeff 660 660 0.300 3.400
pair_coeff 661 661 0.030 2.420
pair_coeff 662 662 0.088 3.430
pair_coeff 663 663 0.088 3.430
pair_coeff 664 664 0.088 3.430
pair_coeff 665 665 0.077 3.470
pair_coeff 666 666 0.077 3.470
pair_coeff 667 667 0.077 3.470
pair_coeff 668 668 0.068 3.550
pair_coeff 669 669 0.061 2.850
pair_coeff 670 670 0.068 3.550
pair_coeff 671 671 0.061 2.850
pair_coeff 672 672 0.470 3.470
pair_coeff 673 673 0.118 3.905
pair_coeff 674 674 0.068 3.550
pair_coeff 675 675 0.062 3.250
pair_coeff 676 676 0.061 2.940
pair_coeff 677 677 0.068 3.550
pair_coeff 678 678 0.061 2.850
pair_coeff 679 679 0.068 3.550
pair_coeff 680 680 0.450 3.470
pair_coeff 681 681 0.068 3.550
pair_coeff 682 682 0.580 3.800
pair_coeff 683 683 0.066 3.500
pair_coeff 684 684 0.425 3.600
pair_coeff 685 685 0.068 3.550
pair_coeff 686 686 0.068 3.550
pair_coeff 687 687 0.068 3.550
pair_coeff 688 688 0.068 3.550
pair_coeff 689 689 0.068 3.550
pair_coeff 690 690 0.030 2.420
pair_coeff 691 691 0.030 2.420
pair_coeff 692 692 0.050 3.550
pair_coeff 693 693 0.170 3.250
pair_coeff 694 694 0.000 0.000
pair_coeff 695 695 0.000 0.000
pair_coeff 696 696 0.030 2.420
pair_coeff 697 697 0.066 3.500
pair_coeff 698 698 0.066 3.500
pair_coeff 699 699 0.17 3.25
pair_coeff 700 700 0.17 3.25
pair_coeff 701 701 0.17 3.25
pair_coeff 702 702 0.050 3.550
pair_coeff 703 703 0.170 3.200
pair_coeff 704 704 0.066 3.300
pair_coeff 705 705 0.066 3.300
pair_coeff 706 706 0.066 3.300
pair_coeff 707 707 0.066 3.300
pair_coeff 708 708 0.066 3.300
pair_coeff 709 709 0.015 2.500
pair_coeff 710 710 0.12 3.25
pair_coeff 711 711 0.17 2.96
pair_coeff 712 712 0.066 3.500
pair_coeff 713 713 0.015 2.500
pair_coeff 714 714 0.066 3.500
pair_coeff 715 715 0.066 3.500
pair_coeff 716 716 0.066 3.500
pair_coeff 717 717 0.12 3.25
pair_coeff 718 718 0.068 3.550
pair_coeff 719 719 0.066 3.300
pair_coeff 720 720 0.170 3.250
pair_coeff 721 721 0.210 2.960
pair_coeff 722 722 0.105 3.750
pair_coeff 723 723 0.170 3.000
pair_coeff 724 724 0.066 3.500
pair_coeff 725 725 0.066 3.500
pair_coeff 726 726 0.066 3.500
pair_coeff 727 727 0.015 2.420
pair_coeff 728 728 0.015 2.420
pair_coeff 729 729 0.015 2.420
pair_coeff 730 730 0.140 2.90
pair_coeff 731 731 0.200 3.740
pair_coeff 732 732 0.066 3.500
pair_coeff 733 733 0.066 3.500
pair_coeff 734 734 0.030 2.500
pair_coeff 735 735 0.200 3.740
pair_coeff 736 736 0.061 3.1181
pair_coeff 737 737 0.170 3.150
pair_coeff 738 738 0.210 2.860
pair_coeff 739 739 0.066 3.500
pair_coeff 740 740 0.068 3.550
pair_coeff 741 741 0.062 3.250
pair_coeff 742 742 0.061 2.940
pair_coeff 743 743 0.068 3.550
pair_coeff 744 744 0.030 2.500
pair_coeff 745 745 0.060 3.570
pair_coeff 746 746 0.026 2.480
pair_coeff 747 747 0.170 3.300
pair_coeff 748 748 0.170 3.300
pair_coeff 749 749 0.170 3.300
pair_coeff 750 750 0.066 3.500
pair_coeff 751 751 0.066 3.500
pair_coeff 752 752 0.066 3.500
pair_coeff 753 753 0.066 3.500
pair_coeff 754 754 0.066 3.500
pair_coeff 755 755 0.066 3.500
pair_coeff 756 756 0.0 0.0
pair_coeff 757 757 0.0 0.0
pair_coeff 758 758 0.015 2.500
pair_coeff 759 759 0.066 3.500
pair_coeff 760 760 0.066 3.500
pair_coeff 761 761 0.066 3.500
pair_coeff 762 762 0.066 3.500
pair_coeff 763 763 0.068 3.550
pair_coeff 764 764 0.068 3.550
pair_coeff 765 765 0.068 3.550
pair_coeff 766 766 0.066 3.500
pair_coeff 767 767 0.066 3.500
pair_coeff 768 768 0.066 3.500
pair_coeff 769 769 0.066 3.500
pair_coeff 770 770 0.066 3.500
pair_coeff 771 771 0.066 3.500
pair_coeff 772 772 0.110 3.500
pair_coeff 773 773 0.015 2.420
pair_coeff 774 774 0.066 3.550
pair_coeff 775 775 0.066 3.510
pair_coeff 776 776 0.066 3.500
pair_coeff 777 777 0.066 3.500
pair_coeff 778 778 0.066 3.500
pair_coeff 779 779 0.066 3.500
pair_coeff 780 780 0.066 3.500
pair_coeff 781 781 0.170 3.120
pair_coeff 782 782 0.0 0.0
pair_coeff 783 783 0.17 3.25
pair_coeff 784 784 0.17 3.25
pair_coeff 785 785 0.17 3.25
pair_coeff 786 786 0.210 3.300
pair_coeff 787 787 0.290 3.480
pair_coeff 788 788 0.0 0.0
pair_coeff 789 789 0.066 3.500
pair_coeff 790 790 0.066 3.500
pair_coeff 791 791 0.066 3.500
pair_coeff 792 792 0.066 3.500
pair_coeff 793 793 0.070 3.550
pair_coeff 794 794 0.076 3.550
pair_coeff 795 795 0.070 3.550
pair_coeff 796 796 0.070 3.550
pair_coeff 797 797 0.030 2.500
pair_coeff 798 798 0.066 3.500
pair_coeff 799 799 0.105 3.750
pair_coeff 800 800 0.290 3.480
pair_coeff 801 801 0.210 2.960
pair_coeff 802 802 0.0 0.0
pair_coeff 803 803 0.061 2.940
pair_coeff 804 804 0.066 3.500
pair_coeff 805 805 0.030 2.500
pair_coeff 806 806 0.066 3.500
pair_coeff 807 807 0.066 3.500
pair_coeff 808 808 0.066 3.500
pair_coeff 809 809 0.066 3.500
pair_coeff 810 810 0.066 3.500
pair_coeff 811 811 0.097 3.500
pair_coeff 812 812 0.053 2.950
pair_coeff 813 813 0.062 3.250
pair_coeff 814 814 0.030 2.500
pair_coeff 815 815 0.066 3.500
pair_coeff 816 816 0.066 3.500
pair_coeff 817 817 0.300 3.400
pair_coeff 818 818 0.066 3.500
pair_coeff 819 819 0.030 2.500
pair_coeff 820 820 0.066 3.500
pair_coeff 821 821 0.066 3.500
pair_coeff 822 822 0.470 3.470
pair_coeff 823 823 0.066 3.500
pair_coeff 824 824 0.030 2.500
pair_coeff 825 825 0.066 3.500
pair_coeff 826 826 0.066 3.500
pair_coeff 827 827 0.061 2.940
pair_coeff 828 828 0.300 3.400
pair_coeff 829 829 0.470 3.470
pair_coeff 830 830 0.068 3.550
pair_coeff 831 831 0.140 2.900
pair_coeff 832 832 0.066 3.500
pair_coeff 833 833 0.060 2.900
pair_coeff 834 834 0.170 3.250
pair_coeff 835 835 0.068 3.550
pair_coeff 836 836 0.066 3.500
pair_coeff 837 837 0.105 3.750
pair_coeff 838 838 0.105 3.750
pair_coeff 839 839 0.210 2.960
pair_coeff 840 840 0.170 3.250
pair_coeff 841 841 0.000 0.000
pair_coeff 842 842 0.170 3.120
pair_coeff 843 843 0.000 0.000
pair_coeff 844 844 0.066 3.500
pair_coeff 845 845 0.066 3.500
pair_coeff 846 846 0.070 3.550
pair_coeff 847 847 0.070 3.550
pair_coeff 848 848 0.070 3.550
pair_coeff 849 849 0.070 3.550
pair_coeff 850 850 0.068 3.550
pair_coeff 851 851 0.0125 1.960
pair_coeff 852 852 0.0 0.0
pair_coeff 853 853 0.0 0.0
pair_coeff 854 854 0.0 0.0
pair_coeff 855 855 0.068 3.550
pair_coeff 856 856 0.300 3.400
pair_coeff 857 857 0.066 3.500
pair_coeff 858 858 0.066 3.500
pair_coeff 859 859 0.066 3.500
pair_coeff 860 860 0.600 3.750
pair_coeff 861 861 0.030 2.500
pair_coeff 862 862 0.068 3.550
pair_coeff 863 863 0.470 3.470
pair_coeff 864 864 0.068 3.550
pair_coeff 865 865 0.600 3.750
pair_coeff 866 866 0.170 3.250
pair_coeff 867 867 0.068 3.550
pair_coeff 868 868 0.140 2.900
pair_coeff 869 869 0.066 3.500
pair_coeff 870 870 0.066 3.500
pair_coeff 871 871 0.066 3.500
pair_coeff 872 872 0.030 2.500
pair_coeff 873 873 0.068 3.550
pair_coeff 874 874 0.170 3.250
pair_coeff 875 875 0.068 3.550
pair_coeff 876 876 0.105 3.750
pair_coeff 877 877 0.210 2.960
pair_coeff 878 878 0.170 3.250
pair_coeff 879 879 0.066 3.500
pair_coeff 880 880 0.066 3.500
pair_coeff 881 881 0.066 3.500
pair_coeff 882 882 0.066 3.500
pair_coeff 883 883 0.015 2.420
pair_coeff 884 884 0.105 3.750
pair_coeff 885 885 0.210 2.960
pair_coeff 886 886 0.015 2.420
pair_coeff 887 887 0.066 3.500
pair_coeff 888 888 0.066 3.500
pair_coeff 889 889 0.066 3.500
pair_coeff 890 890 0.066 3.500
pair_coeff 891 891 0.066 3.500
pair_coeff 892 892 0.066 3.500
pair_coeff 893 893 0.066 3.500
pair_coeff 894 894 0.066 3.500
pair_coeff 895 895 0.066 3.500
pair_coeff 896 896 0.066 3.500
pair_coeff 897 897 0.10 4.00
pair_coeff 898 898 0.10 4.00
pair_coeff 899 899 0.10 4.00
pair_coeff 900 900 0.10 4.00
pair_coeff 901 901 0.03 2.50
pair_coeff 902 902 0.066 3.500
pair_coeff 903 903 0.066 3.500
pair_coeff 904 904 0.066 3.500
pair_coeff 905 905 0.066 3.500
pair_coeff 906 906 0.070 3.550
pair_coeff 907 907 0.10 4.00
pair_coeff 908 908 0.10 4.00
pair_coeff 909 909 0.10 4.00
pair_coeff 910 910 0.17 3.12
pair_coeff 911 911 0.00 0.00
pair_coeff 912 912 0.10 4.00
pair_coeff 913 913 0.10 4.00
pair_coeff 914 914 0.10 4.00
pair_coeff 915 915 0.14 2.90
pair_coeff 916 916 0.10 4.00
pair_coeff 917 917 0.10 4.00
pair_coeff 918 918 0.10 4.00
pair_coeff 919 919 0.10 4.00
pair_coeff 920 920 0.10 4.00
pair_coeff 921 921 0.10 4.00
pair_coeff 922 922 0.070 3.550
pair_coeff 923 923 0.030 2.420
pair_coeff 924 924 0.070 3.550
pair_coeff 925 925 0.030 2.420
pair_coeff 926 926 0.72000 3.08
pair_coeff 927 927 0.11779 4.18
pair_coeff 928 928 0.09000 4.51
pair_coeff 929 929 0.07000 5.15
pair_coeff 930 930 0.018279 2.70
pair_coeff 931 931 0.002772 3.35
pair_coeff 932 932 0.000328 4.06
pair_coeff 933 933 0.000171 4.32
pair_coeff 934 934 0.000081 4.82
pair_coeff 935 935 0.875044 2.91
pair_coeff 936 936 0.449657 3.47
pair_coeff 937 937 0.118226 3.82
pair_coeff 938 938 0.047096 4.18
pair_coeff 939 939 0.066 3.500
pair_coeff 940 940 0.066 3.500
pair_coeff 941 941 0.066 3.500
pair_coeff 942 942 0.066 3.500
pair_coeff 943 943 0.030 2.500
pair_coeff 944 944 0.290 3.480
pair_coeff 945 945 0.068 3.550
pair_coeff 946 946 0.290 3.480
pair_coeff 947 947 0.068 3.550
pair_coeff 948 948 0.076 3.550
pair_coeff 949 949 0.076 3.550
pair_coeff 950 950 0.030 2.420
pair_coeff 951 951 0.086 3.300
pair_coeff 952 952 0.086 3.300
pair_coeff 953 953 0.086 3.300
pair_coeff 954 954 0.086 3.300
pair_coeff 955 955 0.086 3.300
pair_coeff 956 956 0.210 2.960
pair_coeff 957 957 0.06762 2.620
pair_coeff 958 958 0.188814 2.930
pair_coeff 959 959 0.066 3.500
pair_coeff 960 960 0.355 3.600
pair_coeff 961 961 0.070 3.550
pair_coeff 962 962 0.170 3.250
pair_coeff 963 963 0.070 3.550
pair_coeff 964 964 0.070 3.550
pair_coeff 965 965 0.030 2.420
pair_coeff 966 966 0.030 2.420
pair_coeff 967 967 0.066 3.500
pair_coeff 968 968 0.062 3.250
pair_coeff 969 969 0.170 3.070
pair_coeff 970 970 0.000 0.00
pair_coeff 971 971 0.061 2.940
pair_coeff 972 972 0.030 2.500
pair_coeff 973 973 0.088 3.430
pair_coeff 974 974 0.076 3.550
pair_coeff 975 975 0.088 3.430
pair_coeff 976 976 0.110 3.500
pair_coeff 977 977 0.102 3.188
pair_coeff 978 978 0.0 0.0
pair_coeff 979 979 0.16275 3.16435
pair_coeff 980 980 0.0 0.0
pair_coeff 981 981 0.0 1.0
pair_coeff 982 982 0.1780 3.0970
pair_coeff 983 983 0.0 1.0
pair_coeff 984 984 0.0 1.0
pair_coeff 985 985 0.1553 3.166
pair_coeff 986 986 0.1553 3.166
pair_coeff 987 987 0.0 0.0
pair_coeff 988 988 0.0 0.0
pair_coeff 989 989 0.21280 3.166552
pair_coeff 990 990 0.0 0.0
pair_coeff 991 991 0.0 1.781797
bond_coeff 2 317. 1.495 # TRP(OL)
bond_coeff 3 388. 1.459 # TRP
bond_coeff 4 546. 1.352 # TRP
bond_coeff 5 546. 1.352 # TRP
bond_coeff 6 317. 1.495 # TRP(OL)
bond_coeff 7 546. 1.352 # TRP
bond_coeff 8 340. 1.08 #
bond_coeff 9 320. 1.486 # wlj temp borate B3LYP
bond_coeff 10 385. 1.460 # wlj
bond_coeff 11 385. 1.38 # MKD MP2(full)/6-311G(d,p)
bond_coeff 12 385. 1.460 # wlj
bond_coeff 13 385. 1.460 # wlj
bond_coeff 14 385. 1.460 # wlj
bond_coeff 15 385. 1.460 # wlj
bond_coeff 16 385. 1.460 # wlj
bond_coeff 17 385. 1.460 # wlj
bond_coeff 18 385. 1.460 # wlj
bond_coeff 19 427. 1.381 # MKD changed from 1.440 to 1.381
bond_coeff 20 483. 1.339 # wlj
bond_coeff 21 385. 1.42 #
bond_coeff 22 532.8 1.084 # wlj - "
bond_coeff 23 260. 1.526 # AA(OL)
bond_coeff 24 260. 1.526 # ILE(OL)
bond_coeff 25 317. 1.51 # PHE,TYR
bond_coeff 26 317. 1.504 # HIS
bond_coeff 27 317. 1.51 # PHE,TYR
bond_coeff 28 260. 1.526 # AA,SUG
bond_coeff 29 367. 1.38 # wlj
bond_coeff 30 337. 1.463 # ARG(OL)
bond_coeff 31 367. 1.471 # LYS(OL)
bond_coeff 32 382. 1.448 # JACS 112, 8314 (90)
bond_coeff 33 337. 1.449 # GLY(OL)
bond_coeff 34 386. 1.425 # SUG(OL),SER
bond_coeff 35 320. 1.425 # SUG(OL)
bond_coeff 36 222. 1.81 # CYS(OL)
bond_coeff 37 222. 1.81 # CYX(OL)
bond_coeff 38 260. 1.526 # Ethane
bond_coeff 39 260. 1.526 # ALA
bond_coeff 40 317. 1.51 # THY(use std C-C)
bond_coeff 41 337. 1.463 # ARG(OL)
bond_coeff 42 367. 1.471 #
bond_coeff 43 382. 1.448 # "
bond_coeff 44 337. 1.449 # est
bond_coeff 45 337. 1.475 # 9 methyl bases
bond_coeff 46 386. 1.425 # SUG(OL),SER
bond_coeff 47 320. 1.425 # DMP
bond_coeff 48 222. 1.81 # CYS(OL)
bond_coeff 49 222. 1.81 # MET(OL)
bond_coeff 50 317. 1.50 # OPLS hydrocarbons ff (jtr 5-14-91)
bond_coeff 51 317. 1.50 # OPLS hydrocarbons ff (jtr 5-14-91)
bond_coeff 52 530. 1.34 # OPLS hydrocarbons ff (jtr 5-14-91)
bond_coeff 53 317. 1.50 # OPLS hydrocarbons ff (jtr 5-14-91)
bond_coeff 54 317. 1.50 # OPLS hydrocarbons ff (jtr 5-14-91)
bond_coeff 55 317. 1.50 # OPLS hydrocarbons ff (jtr 5-14-91)
bond_coeff 56 317. 1.50 # OPLS hydrocarbons ff (jtr 5-14-91)
bond_coeff 57 530. 1.34 # OPLS hydrocarbons ff (jtr 5-14-91)
bond_coeff 58 530. 1.34 # OPLS hydrocarbons ff (jtr 5-14-91)
bond_coeff 59 317. 1.50 # OPLS hydrocarbons ff (jtr 5-14-91)
bond_coeff 60 317. 1.50 # OPLS hydrocarbons ff (jtr 5-14-91)
bond_coeff 61 530. 1.34 # OPLS hydrocarbons ff (jtr 5-14-91)
bond_coeff 62 530. 1.34 # OPLS hydrocarbons ff (jtr 5-14-91)
bond_coeff 63 530. 1.34 # OPLS hydrocarbons ff (jtr 5-14-91)
bond_coeff 64 385. 1.460 # wlj 1,3-diene 3/97
bond_coeff 65 317. 1.51 # wlj
bond_coeff 66 400. 1.426 # wlj 9/06
bond_coeff 67 385. 1.460 # wlj acrolein
bond_coeff 68 340. 1.08 # wlj
bond_coeff 69 340. 1.08 # wlj
bond_coeff 70 481. 1.340 # wlj
bond_coeff 71 415. 1.428 # wlj azadiene 9/02
bond_coeff 72 457. 1.290 # imine
bond_coeff 73 481. 1.340 # wlj
bond_coeff 74 300. 1.87 # wlj
bond_coeff 75 469. 1.40 #
bond_coeff 76 427. 1.433 #
bond_coeff 77 469. 1.40 # TRP,TYR,PHE
bond_coeff 78 469. 1.404 # ADE
bond_coeff 79 469. 1.40 # TRP
bond_coeff 80 469. 1.40 # PHE,TYR
bond_coeff 81 427. 1.433 # CYT
bond_coeff 82 427. 1.433 #
bond_coeff 83 469. 1.40 # TRP
bond_coeff 84 317. 1.51 # PHE,TYR
bond_coeff 85 546. 1.367 # pyrrole - wlj
bond_coeff 86 317. 1.49 # wlj
bond_coeff 87 400. 1.451 # wlj 9/98
bond_coeff 88 300. 1.725 # wlj
bond_coeff 89 427. 1.433 #
bond_coeff 90 420. 1.354 # wlj
bond_coeff 91 367. 1.080 # PHE, etc.
bond_coeff 92 250. 2.08 # wlj
bond_coeff 93 481. 1.340 # ARG
bond_coeff 94 400. 1.45 # LYS(OL)
bond_coeff 95 427. 1.381 # GUA
bond_coeff 96 414. 1.391 # Added DSM (from CB-NB)
bond_coeff 97 483. 1.339 # ADE,GUA,CYT
bond_coeff 98 400. 1.460 # wlj nitro
bond_coeff 99 481. 1.340 # wlj/rr anilines
bond_coeff 100 382. 1.385 # jtr - neutral Arg; MLL
bond_coeff 101 400. 1.410 # wlj 10/04 isonitrile
bond_coeff 102 427. 1.381 # Added DSM (from GUA)
bond_coeff 103 450. 1.364 #
bond_coeff 104 450. 1.364 # wlj
bond_coeff 105 220. 1.78 #
bond_coeff 106 250. 1.74 # wlj
bond_coeff 107 250. 1.76 # thioanisole copy from CW-S rcr HIVRT
bond_coeff 108 469. 1.40 #
bond_coeff 109 520. 1.370 # ADE,GUA
bond_coeff 110 469. 1.40 # TRP
bond_coeff 111 447. 1.419 # TRP
bond_coeff 112 317. 1.51 # Added DSM (from CA-CT)
bond_coeff 113 520. 1.410 # ADE,GUA
bond_coeff 114 436. 1.374 # wlj
bond_coeff 115 414. 1.391 # ADE,GUA,HIS
bond_coeff 116 461. 1.354 # ADE,GUA
bond_coeff 117 436. 1.374 # ADE,GUA
bond_coeff 118 340. 1.360 # wlj
bond_coeff 119 520. 1.370 # Added DSM (from CB-CB)
bond_coeff 120 512. 1.375 # HIS
bond_coeff 121 518. 1.371 # HIS
bond_coeff 122 317. 1.504 # HIS
bond_coeff 123 512. 1.375 # HIS
bond_coeff 124 518. 1.371 # HIS
bond_coeff 125 422. 1.385 # HIS
bond_coeff 126 410. 1.394 # ADE,GUA,HIS
bond_coeff 127 469. 1.40 # TRP
bond_coeff 128 469. 1.40 # TRP,TYR,PHE
bond_coeff 129 469. 1.40 # TRP
bond_coeff 130 529. 1.304 # ADE,GUA
bond_coeff 131 440. 1.371 # ADE,GUA
bond_coeff 132 268. 1.529 # wlj JPC 105, 4118 (2001)
bond_coeff 133 367. 1.332 # wlj JPCA 105, 4118 (2001)
bond_coeff 134 410. 1.394 # ADE,GUA,HIS
bond_coeff 135 427. 1.381 # TRP,HIS
bond_coeff 136 260. 1.526 # SUG(as in CH-C2),ILE
bond_coeff 137 382. 1.448 # wlj - MM3 based
bond_coeff 138 337. 1.449 # AA
bond_coeff 139 337. 1.475 # ADE,GUA,CYT,URA
bond_coeff 140 386. 1.425 # RSUG,THR
bond_coeff 141 320. 1.425 # SUG
bond_coeff 142 502. 1.324 # ADE
bond_coeff 143 549. 1.350 # URA,CYT
bond_coeff 144 549. 1.350 # THY
bond_coeff 145 448. 1.365 # URA,CYT
bond_coeff 146 367. 1.08 #
bond_coeff 147 340. 1.08 #
bond_coeff 148 440. 1.371 #
bond_coeff 149 529. 1.304 #
bond_coeff 150 440. 1.371 #
bond_coeff 151 300. 1.90 # wlj
bond_coeff 152 549. 1.340 # wlj
bond_coeff 153 549. 1.340 # wlj
bond_coeff 154 317. 1.51 # wlj
bond_coeff 155 317. 1.51 # hept, copy from CM-CT rcr HIVRT
bond_coeff 156 400. 1.426 # wlj 9/06
bond_coeff 157 300. 1.725 # wlj
bond_coeff 158 420. 1.340 # wlj
bond_coeff 159 367. 1.08 #
bond_coeff 160 340. 1.08 # wlj
bond_coeff 161 340. 1.08 # wlj
bond_coeff 162 250. 2.08 # wlj
bond_coeff 163 448. 1.365 # copy from above for CytH+ (jtr 5-14-91)
bond_coeff 164 483. 1.339 # ADE,GUA,CYT
bond_coeff 165 427. 1.381 # wlj
bond_coeff 166 448. 1.365 #
bond_coeff 167 450. 1.370 # wlj
bond_coeff 168 450. 1.370 # wlj
bond_coeff 169 250. 1.76 # hept, copy from CW-S rcr HIVRT
bond_coeff 170 428. 1.38 # TRP
bond_coeff 171 260. 1.526 # "
bond_coeff 172 260. 1.526 # "
bond_coeff 173 337. 1.475 # jtr (12/7/01)
bond_coeff 174 320. 1.38 # Acetal - wlj 2/93
bond_coeff 175 385. 1.46 # MKD New Thiophene -MP2(full)/6-311G(d,p)
bond_coeff 176 546. 1.38 # MKD New Thiophene -MP2(full)/6-311G(d,p)
bond_coeff 177 278. 1.496 # JT-R 2014/04 2-alkyl thiophenes, MP2/aug-cc-pVTZ
bond_coeff 178 367. 1.08 # MKD New Thiophene -MP2(full)/6-311G(d,p)
bond_coeff 179 477. 1.343 # HIS
bond_coeff 180 488. 1.335 # HIS(MOD)
bond_coeff 181 481. 1.380 # JT-R 2014/04 2-amino thiophenes
bond_coeff 182 278. 1.366 # JT-R 2014/04 2-alkyl thiophenes, MP2/aug-cc-pVTZ
bond_coeff 183 340. 1.356 # JT-R 2014/04 thiophene ethers
bond_coeff 184 250. 1.71 # MKD New Thiophene -MP2(full)/6-311G(d,p), JT-R 2014/04 change "S " to SA
bond_coeff 185 250. 1.74 # wlj
bond_coeff 186 220. 1.763 # JT-R 2014/04 thiophene thiol
bond_coeff 187 250. 1.74 # wlj
bond_coeff 188 367. 1.08 #
bond_coeff 189 367. 1.08 #
bond_coeff 190 481. 1.340 # wlj
bond_coeff 191 502. 1.324 #
bond_coeff 192 427. 1.381 # wlj
bond_coeff 193 300. 1.87 # wlj
bond_coeff 194 520. 1.370 # wlj
bond_coeff 195 300. 1.725 # wlj
bond_coeff 196 420. 1.354 # wlj
bond_coeff 197 367. 1.08 #
bond_coeff 198 367. 1.08 #
bond_coeff 199 250. 2.08 # wlj
bond_coeff 200 481. 1.340 # wlj
bond_coeff 201 477. 1.343 # HIS
bond_coeff 202 488. 1.335 # HIS(MOD)
bond_coeff 203 461. 1.354 # wlj
bond_coeff 204 477. 1.343 # HIS
bond_coeff 205 477. 1.343 # HIS
bond_coeff 206 250. 1.76 # wlj
bond_coeff 207 250. 1.76 # wlj
bond_coeff 208 300. 1.87 # wlj
bond_coeff 209 469. 1.424 # "
bond_coeff 210 469. 1.424 # "
bond_coeff 211 317. 1.495 # wlj
bond_coeff 212 546. 1.367 # wlj/nm
bond_coeff 213 300. 1.725 # wlj
bond_coeff 214 420. 1.354 # wlj
bond_coeff 215 367. 1.080 # "
bond_coeff 216 250. 2.08 # wlj
bond_coeff 217 400. 1.29 # wlj 07/11 diazo
bond_coeff 218 245. 1.945 # wlj
bond_coeff 219 532.8 1.460 # wlj - JACS 94, 4632 (1972)
bond_coeff 220 260. 1.526 # Added DSM (from C2-CH)
bond_coeff 221 260. 1.526 # Added DSM (from C3-CH)
bond_coeff 222 268. 1.5290 # =CT-CT - wd 3/95
bond_coeff 223 268. 1.529 # CHARMM 22 parameter file
bond_coeff 224 317. 1.49 # MKD MP2(full)/6-311G(d,p) - 3-methyl-isoxazole
bond_coeff 225 390. 1.470 # wlj 9/98 do 11/98
bond_coeff 226 245. 1.781 # wlj - from MM2 (Tet 31, 1971 (75))
bond_coeff 227 367. 1.36 # wlj compromise JPCA 7202 (2006)
bond_coeff 228 340. 1.09 # CHARMM 22 parameter file
bond_coeff 229 200. 2.19 # wlj see JPOC 7, 420 (1994)
bond_coeff 230 337. 1.463 # ARG(OL)
bond_coeff 231 367. 1.471 # LYS(OL)
bond_coeff 232 337. 1.475 # copy from above for CytH+ (jtr 5-14-91)
bond_coeff 233 337. 1.449 # wlj azide
bond_coeff 234 337. 1.475 #
bond_coeff 235 337. 1.449 #
bond_coeff 236 375. 1.490 # wlj nitro
bond_coeff 237 382. 1.448 # "
bond_coeff 238 382. 1.448 # jtr - neutral Arg; MLL
bond_coeff 239 390. 1.430 # wlj 10/04 isonitrile
bond_coeff 240 337. 1.449 # wlj
bond_coeff 241 337. 1.449 #
bond_coeff 242 337. 1.475 #
bond_coeff 243 320. 1.41 #
bond_coeff 244 320. 1.41 #
bond_coeff 245 212. 1.820 # wlj 9/97
bond_coeff 246 212. 1.843 # wlj 11/95 MM3 based JACS 114, 8536 (92)
bond_coeff 247 222. 1.81 # CYS(OL)
bond_coeff 248 222. 1.81 # CYX(OL)
bond_coeff 249 300. 1.87 # wlj
bond_coeff 250 469. 1.421 # "
bond_coeff 251 469. 1.424 # wlj
bond_coeff 252 520. 1.370 # wlj
bond_coeff 253 400. 1.451 # wlj 6/08
bond_coeff 254 300. 1.725 # wlj
bond_coeff 255 420. 1.354 # wlj
bond_coeff 256 367. 1.080 # "
bond_coeff 257 250. 2.08 # wlj
bond_coeff 258 410. 1.320 # "
bond_coeff 259 427. 1.381 # wlj
bond_coeff 260 300. 1.87 # wlj
bond_coeff 261 317. 1.504 # jtr: HIE CB-CG
bond_coeff 262 520. 1.370 # wlj imidazole
bond_coeff 263 300. 1.725 # wlj
bond_coeff 264 420. 1.354 # wlj
bond_coeff 265 367. 1.08 #
bond_coeff 266 367. 1.08 #
bond_coeff 267 250. 2.08 # wlj
bond_coeff 268 410. 1.394 # ADE,GUA,HIS
bond_coeff 269 300. 1.87 # wlj
bond_coeff 270 549. 1.365 #
bond_coeff 271 481. 1.454 # JT-R 2014/04 2-vinyl furans
bond_coeff 272 481. 1.454 # JT-R 2014/04 2-vinyl furans
bond_coeff 273 278. 1.488 # jpt changed from 317. 1.504 jtr: HID CB-CG
bond_coeff 274 512. 1.375 #
bond_coeff 275 317. 1.465 # wlj, JT-R 2014/04 copy for cyclopropyl-heterocycle
bond_coeff 276 300. 1.725 # wlj
bond_coeff 277 420. 1.354 # wlj
bond_coeff 278 367. 1.08 #
bond_coeff 279 367. 1.08 # pyrrole - wlj
bond_coeff 280 250. 2.08 # wlj
bond_coeff 281 427. 1.381 # TRP,HIS
bond_coeff 282 410. 1.394 #
bond_coeff 283 481. 1.385 # JT-R 2014/04 2-amino pyrroles, furans
bond_coeff 284 427. 1.381 # wlj
bond_coeff 285 340. 1.36 # JT-R 2014/04 Furan - wlj 4/97
bond_coeff 286 340. 1.36 # Furan - wlj 4/97
bond_coeff 287 250. 1.74 # wlj
bond_coeff 288 250. 1.74 # wlj
bond_coeff 289 317. 1.504 # jtr: HIP CB-CG
bond_coeff 290 520. 1.370 # copy from CV-CW for HIP
bond_coeff 291 367. 1.08 # jtr - HIP
bond_coeff 292 427. 1.381 # jtr - HIP
bond_coeff 293 280. 1.473 # JT-R 2014/04 cyclopropyl thiophene
bond_coeff 294 280. 1.510 # "
bond_coeff 295 260. 1.520 # cyclopropanes, cyclobutanes - wlj
bond_coeff 296 400. 1.436 # wlj 6/23
bond_coeff 297 340. 1.088 # "
bond_coeff 298 382. 1.448 # nev, copy from CT-NT rcr HIVRT
bond_coeff 299 337. 1.449 # wlj
bond_coeff 300 337. 1.449 # wlj
bond_coeff 301 260. 1.445 # oxetane MP2/6-311G(d,p) wlj 10/20
bond_coeff 302 222. 1.81 # wlj
bond_coeff 303 330. 1.784 # wlj
bond_coeff 304 1150. 1.210 # do 11/98 - JPOC, 9, 191 (1996)
bond_coeff 305 330. 1.637 # wlj
bond_coeff 306 450. 1.279 # wlj
bond_coeff 307 650. 1.157 # wlj 9/98
bond_coeff 308 300. 1.685 # wlj 9/06
bond_coeff 309 317. 1.522 # wlj
bond_coeff 310 490. 1.335 # wlj
bond_coeff 311 570. 1.229 # wlj
bond_coeff 312 549. 1.365 # wlj 4/13
bond_coeff 313 385. 1.460 # wlj 1,3-triene 6/08
bond_coeff 314 317. 1.51 # wlj
bond_coeff 315 400. 1.444 # wlj
bond_coeff 316 549. 1.345 # wlj
bond_coeff 317 340. 1.08 # wlj
bond_coeff 318 340. 1.08 # wlj
bond_coeff 319 457. 1.290 # imine
bond_coeff 320 300. 1.98 #
bond_coeff 321 317. 1.522 # GLY,ASP,GLU
bond_coeff 322 317. 1.522 # END
bond_coeff 323 400. 1.490 # wlj 8/97
bond_coeff 324 447. 1.419 # GUA
bond_coeff 325 469. 1.40 # TYR
bond_coeff 326 317. 1.522 # AA
bond_coeff 327 410. 1.444 # URA
bond_coeff 328 410. 1.444 # THY
bond_coeff 329 317. 1.522 #
bond_coeff 330 400. 1.490 # wlj 6/14
bond_coeff 331 400. 1.490 # bhap, copy from C -CA rcr HIVRT
bond_coeff 332 400. 1.444 # wlj 9/06
bond_coeff 333 300. 1.79 # wlj
bond_coeff 334 350. 1.510 # wlj oxalic acid, etc.
bond_coeff 335 420. 1.357 # wlj
bond_coeff 336 457. 1.290 # imine
bond_coeff 337 418. 1.388 # URAGUA
bond_coeff 338 457. 1.358 # CYT
bond_coeff 339 490. 1.335 # AA
bond_coeff 340 317. 1.522 # nev, copy from C -CT rcr HIVRT
bond_coeff 341 400. 1.29 # wlj 07/11 diazo
bond_coeff 342 490. 1.335 # AA
bond_coeff 343 424. 1.383 # CYT,URA
bond_coeff 344 656. 1.25 # GLU,ASP
bond_coeff 345 450. 1.364 # TYR
bond_coeff 346 214. 1.327 # J.Comp.Chem.1990,11,1181 SKF8
bond_coeff 347 570. 1.229 # URAGUA,CYT,AA
bond_coeff 348 400. 1.640 # wlj thioamide, etc.
bond_coeff 349 700. 1.305 # wlj 9/06 allene
bond_coeff 350 700. 1.168 # wlj 9/06 ketene and CO2
bond_coeff 351 340. 0.30 # JZV
bond_coeff 352 300. 0.30 # wlj
bond_coeff 353 367. 0.30 # wlj
bond_coeff 354 340. 0.30 # wlj
bond_coeff 355 340. 0.30 # wlj
bond_coeff 356 340. 0.30 # wlj
bond_coeff 357 300. 0.30 # wlj
bond_coeff 358 340. 0.30 # JZV
bond_coeff 359 340. 0.30 # wlj
bond_coeff 360 300. 0.30 # wlj
bond_coeff 361 340. 0.30 # wlj
bond_coeff 362 340. 0.30 # wlj
bond_coeff 363 340. 0.10 # wlj
bond_coeff 364 340. 0.10 # wlj
bond_coeff 365 340. 0.10 # wlj
bond_coeff 366 300. 0.30 # wlj
bond_coeff 367 340. 0.30 # wlj
bond_coeff 368 367. 0.30 # wlj
bond_coeff 369 367. 0.30 # wlj
bond_coeff 370 340. 0.30 # wlj
bond_coeff 371 367. 0.30 # wlj
bond_coeff 372 340. 0.30 # wlj
bond_coeff 373 340. 0.10 # wlj
bond_coeff 374 340. 0.30 # wlj
bond_coeff 375 340. 0.30 # wlj
bond_coeff 376 553. 0.30 # wlj
bond_coeff 377 340. 0.50 # wlj
bond_coeff 378 340. 0.50 # wlj
bond_coeff 379 434. 1.01 # ADE,GUA,CYT,GLN,ASN,ARG
bond_coeff 380 434. 1.01 # AA
bond_coeff 381 434. 1.01 # ADE,GUA,CYT,GLN,ASN,ARG
bond_coeff 382 434. 1.01 # LYS(OL)
bond_coeff 383 340. 1.09 # =CT-HC - wd 3/95
bond_coeff 384 420. 1.080 # do 01/99 - JPOC, 9, 191 (1996)
bond_coeff 385 340. 1.09 # wlj 7/96
bond_coeff 386 0. 1.75 # wlj for FEP
bond_coeff 387 553. 0.945 # SUG(OL) wlj mod 0.96 -> 0.945
bond_coeff 388 553. 0.945 # SUG(OL) 6/6/94
bond_coeff 389 274. 1.336 # CYS(OL)
bond_coeff 390 434. 1.01 # URA,GUA,HIS
bond_coeff 391 434. 1.01 #
bond_coeff 392 434. 1.01 # URA,GUA,HIS
bond_coeff 393 434. 1.01 #
bond_coeff 394 434. 1.01 # AA
bond_coeff 395 434. 1.01 #
bond_coeff 396 400. 1.349 # "
bond_coeff 397 400. 1.280 # " could be N-N or N=N
bond_coeff 398 250. 1.73 # wlj
bond_coeff 399 250. 1.73 # wlj
bond_coeff 400 434. 1.01 # jtr - neutral Arg; MLL
bond_coeff 401 500. 1.320 # wlj pyridazine
bond_coeff 402 550. 1.24 # wlj azide
bond_coeff 403 550. 1.210 # wlj nitroso
bond_coeff 404 418. 1.388 # MKD NE is synonym for NA in 5-membered rings such as hydantoin
bond_coeff 405 434. 1.01 #
bond_coeff 406 550. 1.225 # wlj nitro
bond_coeff 407 337. 1.475 # MKD synonym for CT-NA
bond_coeff 408 427. 1.381 # MKD synonym for CW-NA
bond_coeff 409 350. 1.430 # wlj revised 1/14
bond_coeff 410 320. 1.45 # wlj
bond_coeff 411 320. 1.45 # wlj
bond_coeff 412 385. 1.44 # MKD synonym for NA-C!
bond_coeff 413 427. 1.38 # MKD synonym for NA-CW
bond_coeff 414 400. 1.35 # MKD synonym for NA-NB
bond_coeff 415 434. 1.01 # jtr - neutral Arg; MLL
bond_coeff 416 550. 1.13 # wlj azide & diazo
bond_coeff 417 400. 1.38 # wlj
bond_coeff 418 500. 1.270 # wlj pyridine N-oxide
bond_coeff 419 320. 1.45 # wlj
bond_coeff 420 250. 1.73 # wlj
bond_coeff 421 525. 1.48 # SUG(OL)
bond_coeff 422 462. 1.357 # "
bond_coeff 423 462. 1.399 # "
bond_coeff 424 320. 1.38 # =CO-OS - wd 3/96
bond_coeff 425 230. 1.61 # SUG(OL)
bond_coeff 426 462. 1.357 # "
bond_coeff 427 200. 1.69 # wlj
bond_coeff 428 462. 1.399 # "
bond_coeff 429 250. 1.47 # wlj
bond_coeff 430 250. 1.47 # wlj
bond_coeff 431 230. 1.61 # SUG(OL)
bond_coeff 432 525. 1.48 #
bond_coeff 433 222. 1.81 #
bond_coeff 434 222. 1.76 #
bond_coeff 435 340. 1.77 #
bond_coeff 436 340. 1.79 #
bond_coeff 437 340. 1.77 #
bond_coeff 438 450. 1.60 #
bond_coeff 439 340. 1.77 # nev, copy from SY-CT rcr HIVRT
bond_coeff 440 434. 1.67 #
bond_coeff 441 450. 1.67 #
bond_coeff 442 450. 1.67 #
bond_coeff 443 700. 1.44 #
bond_coeff 444 340. 1.79 #
bond_coeff 445 700. 1.53 #
bond_coeff 446 151. 2.19 # wlj
bond_coeff 447 280. 1.87 # wlj from MP2
bond_coeff 448 240. 1.87 # wlj fit to expt
bond_coeff 449 223. 2.02 # wlj
bond_coeff 450 461. 1.57 # wlj
bond_coeff 451 197. 1.485 # wlj fit to expt
bond_coeff 452 108. 2.44 # wlj
bond_coeff 453 266. 1.74 # wlj
bond_coeff 454 374. 1.66 # wlj
bond_coeff 455 374. 1.66 # wlj
bond_coeff 456 108. 2.25 # wlj
bond_coeff 457 125. 2.33 # wlj fit to expt
bond_coeff 458 144. 2.15 # wlj
bond_coeff 459 166. 2.038 # CYX(OL) SCHERAGA
bond_coeff 460 500. 1.80 # J Phys Chem 97, 5685 (1993)
bond_coeff 461 600. 1.60 # wlj for halogen bonding
bond_coeff 462 600. 1.60 # wlj
bond_coeff 463 600. 1.80 # wlj Sept 2011
bond_coeff 464 40. 2.05 # Merz, JACS 113, 8262 (1991)
bond_coeff 465 94. 1.80 # "
bond_coeff 466 450.00 0.9572 # TIP3/4/5P/F O-H
bond_coeff 467 450.00 1.000 # SPC-SPC/E O-H
bond_coeff 468 450.00 0.8724 # OPC O-H
angle_coeff 1 63.0 115.6 # TRP(OL)
angle_coeff 2 85. 134.9 # TRP(OL)
angle_coeff 3 85. 108.8 # TRP(OL)
angle_coeff 4 85. 134.9 # TRP(OL)
angle_coeff 5 85. 108.8 # TRP(OL)
angle_coeff 6 70. 108.7 # TRP(OL)
angle_coeff 7 70. 108.7 # TRP(OL)
angle_coeff 8 63.0 115.6 # TRP(OL)
angle_coeff 9 35. 109.5 #
angle_coeff 10 70. 128.6 # TRP(OL)
angle_coeff 11 70. 125. # TRP(OL)
angle_coeff 12 70. 125. # TRP(OL)
angle_coeff 13 70. 125. # TRP(OL)
angle_coeff 14 85. 106.4 # TRP(OL)
angle_coeff 15 70. 128.6 # TRP(OL)
angle_coeff 16 85. 106.4 # TRP(OL)
angle_coeff 17 70. 125. # TRP(OL)
angle_coeff 18 35. 126.8 #
angle_coeff 19 35. 126.8 #
angle_coeff 20 60. 114.0 # wlj
angle_coeff 21 78. 111.7 # wlj
angle_coeff 22 35. 110.5 # wlj
angle_coeff 23 92.6 108.6 # wlj - temp borate B3LYP
angle_coeff 24 63. 116.6 # MKD MP2(full)/6-311G(d,p) new
angle_coeff 25 70. 120.0 # wlj 11/28/17
angle_coeff 26 70. 118.1 # MKD MP2(full)/6-311G(d,p) new
angle_coeff 27 35. 120.0 # wlj
angle_coeff 28 63. 120. # wlj
angle_coeff 29 35. 120. # wlj
angle_coeff 30 70. 124.0 # wlj " " " "
angle_coeff 31 70. 120. # MKD synonym for CA-CA-OH
angle_coeff 32 85. 117.3 # ADE
angle_coeff 33 70. 123.1 # MKD MP2(full)/6-311G(d,p) new
angle_coeff 34 70. 125.2 # MKD MP2(full)/6-311G(d,p) changed from 130.0
angle_coeff 35 70. 122.0 # wlj 12/06
angle_coeff 36 35. 121.7 # wlj 6/13
angle_coeff 37 70. 121.6 # wlj
angle_coeff 38 70. 121.6 # MKD synonym for C!-CW-NA
angle_coeff 39 70. 117.3 # MKD MP2(full)/6-311G(d,p) changed from 121.6
angle_coeff 40 63. 125.2 # MKD MP2(full)/6-311G(d,p) new
angle_coeff 41 35. 118.0 # MKD MP2(full)/6-311G(d,p) new
angle_coeff 42 63. 119.9 # MKD MP2(full)/6-311G(d,p) new
angle_coeff 43 5.0 120.0 # wlj 8/07
angle_coeff 44 70. 117.0 # MKD synonym for CA-NC-NC
angle_coeff 45 63. 124.0 # MKD MP2(full)/6-311G(d,p) - hydantoin
angle_coeff 46 63. 119.9 # MKD synonym for C!-NA-NB
angle_coeff 47 70. 117. # wlj
angle_coeff 48 63.0 112.4 # PRO,LYS
angle_coeff 49 63.0 112.4 # alkanes
angle_coeff 50 63.0 112.4 # from C2-C2-C3 alkanes for SKF8
angle_coeff 51 63.0 112.4 # MET
angle_coeff 52 63.0 112.4 # "
angle_coeff 53 50. 109.5 #
angle_coeff 54 80.0 111.2 # ARG JCP 76, 1439
angle_coeff 55 80.0 111.2 # LYS(OL) JCP 76, 1439
angle_coeff 56 56.2 109.47 # wlj - MM3 based - JACS 112, 8314 (90)
angle_coeff 57 80.0 111.2 # PRO JCP 76, 1439
angle_coeff 58 80.0 109.5 # alcohols
angle_coeff 59 80.0 109.5 # THF fit
angle_coeff 60 50. 114.7 # MET SCHERAGA JPC 79,1428
angle_coeff 61 70. 124. # OPLS hydrocarbons ff (jtr 5-14-91)
angle_coeff 62 70. 124. # OPLS hydrocarbons ff (jtr 5-14-91)
angle_coeff 63 70. 124. # OPLS hydrocarbons ff (jtr 5-14-91)
angle_coeff 64 70. 124. # OPLS hydrocarbons ff (jtr 5-14-91)
angle_coeff 65 70. 124. # OPLS hydrocarbons ff (jtr 5-14-91)
angle_coeff 66 70. 120. # PHE(OL)
angle_coeff 67 70. 128.6 # TRP(OL)
angle_coeff 68 70. 120. # PHE(OL)
angle_coeff 69 70. 131.9 # HIS(OL)
angle_coeff 70 70. 129.05 # HIS(OL)
angle_coeff 71 70. 131.9 # HIS(OL)
angle_coeff 72 70. 129.05 # HIS(OL)
angle_coeff 73 70. 122.2 # HIS(OL)
angle_coeff 74 70. 121.05 # HIS(OL)
angle_coeff 75 70. 120. # PHE(OL)
angle_coeff 76 63.0 112.4 # alkanes
angle_coeff 77 63.0 112.4 # alkanes
angle_coeff 78 63.0 112.4 # from C2-CH-C3 alkanes for SKF8
angle_coeff 79 63.0 111.5 # SUG,ILE
angle_coeff 80 56.2 109.47 # wlj - MM3 based - JACS 112, 8314 (90)
angle_coeff 81 80.0 109.7 # ALA JACS 94, 2657
angle_coeff 82 80.0 109.5 # SUG
angle_coeff 83 80.0 109.5 # alcohols
angle_coeff 84 80.0 109.5 # SUG
angle_coeff 85 80.0 109.5 # "
angle_coeff 86 70. 125. #
angle_coeff 87 70. 125. #
angle_coeff 88 70. 125. #
angle_coeff 89 40. 109.5 #
angle_coeff 90 40. 109.5 #
angle_coeff 91 56.2 109.47 # wlj - MM3 based - JACS 112, 8314 (90)
angle_coeff 92 70. 116.6 # GLY GELIN
angle_coeff 93 70. 117. # GLU(OL) SCH JPC 79,2379
angle_coeff 94 80. 120.4 # ASN(OL) GELIN
angle_coeff 95 50. 123.2 # ARG(OL)
angle_coeff 96 35. 118.4 # ARG(OL)
angle_coeff 97 35. 118.4 # ARG(OL)
angle_coeff 98 35. 109.5 # LYS
angle_coeff 99 51.8 107.2 # "
angle_coeff 100 51.8 107.2 # "
angle_coeff 101 43.2 108.1 # wlj MM3 based
angle_coeff 102 50. 121.9 #
angle_coeff 103 50. 118. # PRO(OL) DETAR JACS 99,1232
angle_coeff 104 38. 118.4 # AA(OL)
angle_coeff 105 55.0 108.5 # SUG,SER(OL,mod)
angle_coeff 106 100.0 111.8 # DME based
angle_coeff 107 100.0 111.8 # DME based
angle_coeff 108 100.0 113.0 # "
angle_coeff 109 55.0 108.5 # SUG
angle_coeff 110 100.0 120.5 # SUG(OL)
angle_coeff 111 44. 96.0 # CYS(OL)
angle_coeff 112 150. 96.7 #
angle_coeff 113 62. 98.9 # MET(OL)
angle_coeff 114 150. 96.7 #
angle_coeff 115 68. 103.7 # CYX(OL) SCHERAGA JPC 79,1428
angle_coeff 116 63.0 112.4 # alkanes
angle_coeff 117 63.0 112.4 # ILE
angle_coeff 118 63.0 112.4 # "
angle_coeff 119 63.0 112.4 # from C3-C2-CH ILE, alkanes for SKF8
angle_coeff 120 56.2 109.47 # wlj - MM3 based - JACS 112, 8314 (90)
angle_coeff 121 80.0 109.5 # alcohols
angle_coeff 122 80.0 109.5 # MEE
angle_coeff 123 70. 124. # OPLS hydrocarbons ff (jtr 5-14-91)
angle_coeff 124 70. 124. # OPLS hydrocarbons ff (jtr 5-14-91)
angle_coeff 125 63.0 111.5 # VAL
angle_coeff 126 63.0 111.5 # ILE
angle_coeff 127 56.2 109.47 # wlj - MM3 based - JACS 112, 8314 (90)
angle_coeff 128 80. 109.5 # **
angle_coeff 129 80.0 109.5 # THR
angle_coeff 130 80.0 109.5 # wlj - guess
angle_coeff 131 85. 119.7 # THY
angle_coeff 132 40.0 109.5 # "
angle_coeff 133 80.0 109.5 # "
angle_coeff 134 40. 109.5 #
angle_coeff 135 63. 109.5 # from CA-CT-CT
angle_coeff 136 56.2 109.47 # wlj - MM3 based - JACS 112, 8314 (90)
angle_coeff 137 70. 116.6 # ACET(OL) BENEDETTI
angle_coeff 138 70. 117. # GLU(OL) SCH JPC 79,2379
angle_coeff 139 80. 120.4 # ACET(OL)
angle_coeff 140 50. 123.2 # ARG(OL)
angle_coeff 141 35. 118.4 # ARG(OL)
angle_coeff 142 35. 109.5 #
angle_coeff 143 51.8 107.2 # "
angle_coeff 144 43.2 108.1 # wlj MM3 based
angle_coeff 145 38. 118.4 # TEST!!!!!!!
angle_coeff 146 70. 125.8 # 9 methylated guan,aden
angle_coeff 147 70. 128.8 # Methylated purines
angle_coeff 148 70. 128.8 #
angle_coeff 149 55.0 108.5 # SUG,SER(OL,mod)
angle_coeff 150 100.0 113.0 # "
angle_coeff 151 100.0 120.5 # DMPhos based
angle_coeff 152 44. 96.0 # CYS(OL)
angle_coeff 153 150. 96.7 #
angle_coeff 154 150. 96.7 #
angle_coeff 155 68. 103.7 # CYX(OL) SCHERAGA JPC 79,1428
angle_coeff 156 70. 118. # OPLS hydrocarbons ff (jtr 5-14-91)
angle_coeff 157 70. 118. # OPLS hydrocarbons ff (jtr 5-14-91)
angle_coeff 158 70. 118. # OPLS hydrocarbons ff (jtr 5-14-91)
angle_coeff 159 70. 118. # OPLS hydrocarbons ff (jtr 5-14-91)
angle_coeff 160 70. 118. # OPLS hydrocarbons ff (jtr 5-14-91)
angle_coeff 161 70. 118. # OPLS hydrocarbons ff (jtr 5-14-91)
angle_coeff 162 70. 118. # OPLS hydrocarbons ff (jtr 5-14-91)
angle_coeff 163 70. 118. # OPLS hydrocarbons ff (jtr 5-14-91)
angle_coeff 164 70. 118. # OPLS hydrocarbons ff (jtr 5-14-91)
angle_coeff 165 70. 118. # OPLS hydrocarbons ff (jtr 5-14-91)
angle_coeff 166 70. 118. # OPLS hydrocarbons ff (jtr 5-14-91)
angle_coeff 167 70. 118. # OPLS hydrocarbons ff (jtr 5-14-91)
angle_coeff 168 70. 118. # OPLS hydrocarbons ff (jtr 5-14-91)
angle_coeff 169 70. 118. # OPLS hydrocarbons ff (jtr 5-14-91)
angle_coeff 170 70. 118. # OPLS hydrocarbons ff (jtr 5-14-91)
angle_coeff 171 70. 118. # OPLS hydrocarbons ff (jtr 5-14-91)
angle_coeff 172 70. 118. # OPLS hydrocarbons ff (jtr 5-14-91)
angle_coeff 173 62. 98.9 #
angle_coeff 174 70. 118. # OPLS hydrocarbons ff (jtr 5-14-91)
angle_coeff 175 70. 118. # OPLS hydrocarbons ff (jtr 5-14-91)
angle_coeff 176 70. 118. # OPLS hydrocarbons ff (jtr 5-14-91)
angle_coeff 177 70. 118. # OPLS hydrocarbons ff (jtr 5-14-91)
angle_coeff 178 70. 118. # OPLS hydrocarbons ff (jtr 5-14-91)
angle_coeff 179 70. 118. # OPLS hydrocarbons ff (jtr 5-14-91)
angle_coeff 180 70. 118. # OPLS hydrocarbons ff (jtr 5-14-91)
angle_coeff 181 70. 118. # OPLS hydrocarbons ff (jtr 5-14-91)
angle_coeff 182 70. 118. # OPLS hydrocarbons ff (jtr 5-14-91)
angle_coeff 183 70. 118. # OPLS hydrocarbons ff (jtr 5-14-91)
angle_coeff 184 70. 118. # OPLS hydrocarbons ff (jtr 5-14-91)
angle_coeff 185 70. 118. # OPLS hydrocarbons ff (jtr 5-14-91)
angle_coeff 186 70. 118. #
angle_coeff 187 63. 123.9 # MKD MP2(full)/6-311G(d,p) new
angle_coeff 188 63. 126.0 # MKD MP2(full)/6-311G(d,p) new
angle_coeff 189 63. 124.2 # MKD MP2(full)/6-311G(d,p) new
angle_coeff 190 63. 124.7 # MKD MP2(full)/6-311G(d,p) new
angle_coeff 191 70. 119.6 # MKD MP2(full)/6-311G(d,p) new
angle_coeff 192 63. 123.8 # MKD MP2(full)/6-311G(d,p) - new - external NA connected to pyridone
angle_coeff 193 70. 124.0 # wlj
angle_coeff 194 35. 120.0 # wlj
angle_coeff 195 35. 120.0 # wlj
angle_coeff 196 70. 121.5 #
angle_coeff 197 85. 117.0 #
angle_coeff 198 85. 121.7 # MKD MP2(full)/6-311G(d,p) new
angle_coeff 199 35. 120.0 # wlj
angle_coeff 200 35. 120.0 # wlj
angle_coeff 201 70. 123. # wlj
angle_coeff 202 70. 123. # wlj
angle_coeff 203 35. 109.5 # wlj
angle_coeff 204 160. 180. # wlj
angle_coeff 205 150. 180. # wlj
angle_coeff 206 70. 124.0 # wlj
angle_coeff 207 35. 120.0 # wlj
angle_coeff 208 70. 116. # wlj
angle_coeff 209 80. 116. # wlj
angle_coeff 210 80. 124. # wlj
angle_coeff 211 35. 119.8 # wlj
angle_coeff 212 10.0 109.47 # wlj 1/19
angle_coeff 213 200. 180.0 # wlj 9/11 halogen bonding
angle_coeff 214 63. 120. # wlj
angle_coeff 215 63. 120. # wlj
angle_coeff 216 63. 120. # wlj
angle_coeff 217 63. 120. # wlj
angle_coeff 218 63. 120. # wlj
angle_coeff 219 63. 120. # wlj
angle_coeff 220 63. 120. # wlj
angle_coeff 221 63. 120. # wlj
angle_coeff 222 70. 124.0 # wlj " " " "
angle_coeff 223 63. 120.0 # MKD
angle_coeff 224 63. 114. # PHE(OL) SCH JPC 79,2379
angle_coeff 225 85. 117.0 #
angle_coeff 226 35. 123.3 #
angle_coeff 227 75. 120.0 # wlj
angle_coeff 228 63. 120. # wlj
angle_coeff 229 70. 124. # wlj
angle_coeff 230 63. 120. # PHE(OL)
angle_coeff 231 63. 120. # wlj
angle_coeff 232 85. 120. # Added DSM (from CA-CA-CA)
angle_coeff 233 70. 124. # wlj/mp
angle_coeff 234 85. 120. # TRP(OL)
angle_coeff 235 70. 120. # PHE(OL)
angle_coeff 236 70. 107.4 # wlj 1/97 based on pyrrole
angle_coeff 237 70. 120.7 # "
angle_coeff 238 70. 120. # wlj
angle_coeff 239 75. 120.0 # wlj
angle_coeff 240 70. 124. # wlj/mp
angle_coeff 241 10.0 90. # dummy
angle_coeff 242 80. 120.0 # wlj
angle_coeff 243 35. 120. #
angle_coeff 244 75. 120.0 # wlj
angle_coeff 245 70. 120.1 # wlj
angle_coeff 246 70. 120. # wlj anilinium
angle_coeff 247 70. 108.7 # TRP(OL)
angle_coeff 248 70. 108.7 # Added DSM (from CA-CA-NA)
angle_coeff 249 70. 124.0 # wlj " " " "
angle_coeff 250 85. 120.0 # wlj nitro
angle_coeff 251 70. 120. # wlj/rr anilines
angle_coeff 252 80. 120. # wlj 10/04 "
angle_coeff 253 70. 120.0 # Added DSM (from CA-CA-NA)
angle_coeff 254 70. 120. #
angle_coeff 255 70. 120. # wlj
angle_coeff 256 70. 120. # wlj
angle_coeff 257 45. 121.0 # wlj
angle_coeff 258 85. 134.9 # TRP(OL)
angle_coeff 259 85. 117.3 # ADE
angle_coeff 260 85. 108.8 # TRP(OL)
angle_coeff 261 85. 116.2 # TRP
angle_coeff 262 70. 120. # Added DSM (from CA-CA-CT)
angle_coeff 263 70. 132.4 # ADE
angle_coeff 264 70. 118.4 # wlj 7/14
angle_coeff 265 70. 132.8 # TRP(OL)
angle_coeff 266 85. 120. # PHE
angle_coeff 267 50. 109.5 # wlj
angle_coeff 268 80.0 109.5 # SUG from AMBER/BOSS for SKF8
angle_coeff 269 85. 117.0 # CYT
angle_coeff 270 85. 117.0 #
angle_coeff 271 85. 119.7 # wlj/mp
angle_coeff 272 35. 123.3 #
angle_coeff 273 85. 122.7 # TRP
angle_coeff 274 70. 132.8 # TRP(OL)
angle_coeff 275 69. 110.0 # wlj
angle_coeff 276 63.0 114.0 # "
angle_coeff 277 40.0 109.5 # "
angle_coeff 278 63. 114. # PHE(OL) SCH JPC 79,2379
angle_coeff 279 63.0 112.0 # wlj
angle_coeff 280 50. 109.5 # wlj
angle_coeff 281 35. 109.5 #
angle_coeff 282 80.0 111.2 # wlj
angle_coeff 283 80.0 111.2 # wlj
angle_coeff 284 80.0 111.2 # MKD parameter taken from CA-CT-NT
angle_coeff 285 50. 109.5 # wlj
angle_coeff 286 50. 109.5 #
angle_coeff 287 43. 109.5 # "
angle_coeff 288 50. 114.7 # wlj
angle_coeff 289 35. 128.6 # "
angle_coeff 290 70. 116.0 # wlj 6/14 ai
angle_coeff 291 70. 111.0 # wlj
angle_coeff 292 70. 121.6 # wlj
angle_coeff 293 37.5 114.0 # "
angle_coeff 294 160. 180. # wlj
angle_coeff 295 150. 180. # wlj
angle_coeff 296 10.0 109.47 # wlj 1/19
angle_coeff 297 200. 180.0 # wlj 9/11
angle_coeff 298 85. 117.0 #
angle_coeff 299 35. 123.3 #
angle_coeff 300 85. 120. # TYR(OL) GELIN
angle_coeff 301 35. 115.0 # wlj
angle_coeff 302 70. 115.5 # wlj 8/97 benzamide
angle_coeff 303 70. 117. # GLU(OL) SCH JPC 79,2379
angle_coeff 304 70. 120. # TYR(OL) GELIN
angle_coeff 305 80. 120.4 # wlj
angle_coeff 306 10.0 109.47 # wlj 1/19
angle_coeff 307 10.0 109.47 # wlj 1/19
angle_coeff 308 200. 180.0 # wlj 9/11
angle_coeff 309 50. 121.9 # wlj
angle_coeff 310 50. 123.2 # ARG(OL)
angle_coeff 311 35. 120. # ADE,CYT,GUA,ARG
angle_coeff 312 35. 120. # ADE,CYT,GUA,ARG
angle_coeff 313 35. 120. # ARG(OL)
angle_coeff 314 55. 114.0 # wlj
angle_coeff 315 35. 109.5 # wlj anilinium
angle_coeff 316 70. 125.2 # Added DSM (from C -NA-CA)
angle_coeff 317 70. 111.6 # TRP(OL)
angle_coeff 318 70. 109.8 # wlj
angle_coeff 319 35. 118.0 # GUA
angle_coeff 320 70. 125.2 # Added DSM (from C -NA-CA)
angle_coeff 321 70. 117.0 # wlj " " " "
angle_coeff 322 70. 117.0 # wlj " " " "
angle_coeff 323 70. 112.2 # GUA
angle_coeff 324 70. 118.6 # ADE
angle_coeff 325 70. 118.6 #
angle_coeff 326 50. 118. # wlj
angle_coeff 327 5.0 120.0 # wlj 8/07
angle_coeff 328 35. 113.0 # jtr: neutral ARG
angle_coeff 329 70. 117.0 # wlj pyridazine
angle_coeff 330 80. 117.5 # wlj nitro
angle_coeff 331 50.0 116.0 # wlj anilines 9/06
angle_coeff 332 50.0 116.0 # wlj anilines 9/06
angle_coeff 333 50. 109.5 # nev, copy from CA-NT-CT rcr HIVRT
angle_coeff 334 63.0 112.0 # nev, copy from CA-CT-C rcr HIVRT
angle_coeff 335 10.0 109.5 # wlj
angle_coeff 336 35.0 116.0 # wlj anilines 9/06
angle_coeff 337 50.0 108.6 # nev, copy from CT-CT-SY rcr HIVRT
angle_coeff 338 50. 120.5 # jtr: neutral ARG
angle_coeff 339 50. 112.5 # jtr: neutral ARG
angle_coeff 340 170. 180. # wlj 10/04 "
angle_coeff 341 70. 118.0 # wlj pyridine N-oxide
angle_coeff 342 70. 118.0 # wlj
angle_coeff 343 50. 118. # wlj
angle_coeff 344 70. 118.0 # wlj
angle_coeff 345 70. 118.0 # wlj
angle_coeff 346 35. 119.8 # Added DSM (from C -N -H)
angle_coeff 347 70. 121.0 # wlj " " " "
angle_coeff 348 10.0 109.47 # wlj
angle_coeff 349 35. 113.0 #
angle_coeff 350 100.0 111.8 # AMBER(MMOD) 9/9/91
angle_coeff 351 75. 116.3 # MKD MP2(full)/6-311G(d,p) - biaryl ethers, changed from 111.0
angle_coeff 352 10.0 109.47 # wlj
angle_coeff 353 100.0 120.5 # mll
angle_coeff 354 62.0 123.0 #
angle_coeff 355 45.0 109.5 # wlj 11/95
angle_coeff 356 45.0 109.5 # wlj 11/95
angle_coeff 357 45.0 109.5 # wlj 11/95
angle_coeff 358 50. 96.0 # wlj
angle_coeff 359 62.0 102.0 #
angle_coeff 360 62.0 96.1 # wlj 9/19
angle_coeff 361 74. 107.2 # wlj 9/19
angle_coeff 362 40. 112.5 # wlj
angle_coeff 363 62. 104.2 # hept, adjusted from CT-S -CT rcr HIVRT
angle_coeff 364 65. 97.0 # thioanisole JT-R 2014/04 MP2/cc-pVTZ (was 62,104.2 adj. rcr HIVRT)
angle_coeff 365 63. 120. # wlj
angle_coeff 366 63. 120. # wlj
angle_coeff 367 70. 128.6 #
angle_coeff 368 63.0 106.4 #
angle_coeff 369 35. 120.0 #
angle_coeff 370 70. 123.5 # ADE
angle_coeff 371 70. 108.7 # Added DSM (from CA-CA-NA)
angle_coeff 372 70. 117.3 # ADE
angle_coeff 373 63. 120. # wlj
angle_coeff 374 85. 120. # Added DSM (from CA-CA-CA)
angle_coeff 375 70. 107.3 # "
angle_coeff 376 70. 120. # Added DSM (from CA-CA-CT)
angle_coeff 377 70. 106.2 # wlj
angle_coeff 378 70. 111.0 # GUA,ADE
angle_coeff 379 70. 127.7 # GUA,ADE
angle_coeff 380 70. 127.7 # wlj
angle_coeff 381 70. 106.2 # GUA,ADE
angle_coeff 382 85. 122.7 # TRP
angle_coeff 383 85. 122.7 # TRP
angle_coeff 384 70. 104.4 #
angle_coeff 385 85. 120. # TRP(OL)
angle_coeff 386 85. 122.7 # TRP
angle_coeff 387 70. 104.4 #
angle_coeff 388 85. 106.4 #
angle_coeff 389 70. 107.3 # "
angle_coeff 390 70. 128.6 #
angle_coeff 391 85. 106.4 #
angle_coeff 392 35. 120.0 # bhap, copy from CB-CA-HA rcr HIVRT
angle_coeff 393 63. 114. # Added DSM (from CA-CT-CT)
angle_coeff 394 35. 109.5 # Added DSM (from CA-CT-HC)
angle_coeff 395 70. 111.3 # GUA
angle_coeff 396 70. 111.0 # wlj 6/14 ai
angle_coeff 397 70. 111.3 # GUA
angle_coeff 398 70. 111.3 # wlj
angle_coeff 399 80. 125.0 # GUA wlj changed from 128.8 5/17
angle_coeff 400 70. 105.4 # wlj
angle_coeff 401 70. 109.8 # wlj
angle_coeff 402 70. 125.8 # wlj
angle_coeff 403 70. 109.8 # wlj " " " "
angle_coeff 404 30. 125.8 # wlj
angle_coeff 405 56. 113.1 # "
angle_coeff 406 70. 103.8 # GUA,ADE
angle_coeff 407 70. 103.8 #
angle_coeff 408 70. 117.0 # wlj " " " "
angle_coeff 409 70. 111.0 # ADE
angle_coeff 410 70. 111.0 #
angle_coeff 411 70. 105.4 # GUA,ADE
angle_coeff 412 70. 125.8 # GUA,ADE
angle_coeff 413 70. 105.4 #
angle_coeff 414 70. 125.8 # jtr (12/7/01)
angle_coeff 415 70. 125.8 #
angle_coeff 416 30. 125.8 #
angle_coeff 417 10.0 125. # wlj
angle_coeff 418 74. 97.0 # wlj
angle_coeff 419 74. 92.4 # wlj
angle_coeff 420 63.0 113.1 # HIS(OL)
angle_coeff 421 35. 120.0 #
angle_coeff 422 70. 109.9 # HIS(OL)
angle_coeff 423 70. 105.9 # HIS(OL)
angle_coeff 424 63.0 113.1 # HIS(OL)
angle_coeff 425 35. 109.5 #
angle_coeff 426 70. 111.6 # TRP(OL)
angle_coeff 427 70. 107.30 # HIS(OL)
angle_coeff 428 70. 120.00 # HIS(OL)
angle_coeff 429 35. 120.00 # HIS(OL)
angle_coeff 430 70. 105.3 # HIS(OL)
angle_coeff 431 70. 117.0 # HIS(OL)
angle_coeff 432 63. 114. # PHE(OL) SCH JPC 79,2379
angle_coeff 433 85. 120. # PHE(OL)
angle_coeff 434 85. 116.2 # TRP
angle_coeff 435 70. 132.8 # TRP(OL)
angle_coeff 436 85. 120. # TRP(OL)
angle_coeff 437 85. 120. # PHE(OL)
angle_coeff 438 85. 120. # TRP(OL)
angle_coeff 439 70. 132.8 # TRP(OL)
angle_coeff 440 85. 120. # TYR(OL) GELIN
angle_coeff 441 70. 120. # TYR(OL) GELIN
angle_coeff 442 70. 128.8 # GUA,ADE
angle_coeff 443 70. 128.8 #
angle_coeff 444 35. 127.3 #
angle_coeff 445 70. 105.9 # HIS(OL)
angle_coeff 446 58.35 112.7 # wlj
angle_coeff 447 50. 109.5 # wlj
angle_coeff 448 70. 105.3 # HIS(OL)
angle_coeff 449 70. 105.3 # HIS(OL)
angle_coeff 450 70. 108.75 # HIS(OL)
angle_coeff 451 70. 109.9 # HIS(OL)
angle_coeff 452 70. 111.6 # TRP(OL)
angle_coeff 453 70. 107.3 # HIS(OL)
angle_coeff 454 70. 107.3 # HIS(OL)
angle_coeff 455 35. 126.35 # HIS(OL)
angle_coeff 456 63.0 112.4 # SUG,LEU
angle_coeff 457 56.2 109.47 # wlj - MM3 based - JACS 112, 8314 (90)
angle_coeff 458 80.0 109.5 # SER,end sugar
angle_coeff 459 80.0 109.5 # SUG
angle_coeff 460 50.0 108.6 # CYS
angle_coeff 461 50. 114.7 # CYX SCHERAGA JPC 79,1428
angle_coeff 462 70. 124. # OPLS hydrocarbons ff (jtr 5-14-91)
angle_coeff 463 70. 124. # OPLS hydrocarbons ff (jtr 5-14-91)
angle_coeff 464 70. 124. # OPLS hydrocarbons ff (jtr 5-14-91)
angle_coeff 465 70. 124. # OPLS hydrocarbons ff (jtr 5-14-91)
angle_coeff 466 70. 124. # OPLS hydrocarbons ff (jtr 5-14-91)
angle_coeff 467 70. 120. # from C2-CA-CA PHE(OL) for SKF8
angle_coeff 468 63.0 111.5 # SUG
angle_coeff 469 56.2 109.47 # wlj - MM3 based - JACS 112, 8314 (90)
angle_coeff 470 80.0 109.7 # ILE JACS 94, 2657
angle_coeff 471 80.0 109.5 # SUG
angle_coeff 472 80.0 109.5 # THR,end sugar
angle_coeff 473 80.0 109.5 # SUG
angle_coeff 474 56.2 109.47 # wlj - MM3 based - JACS 112, 8314 (90)
angle_coeff 475 70. 116.6 # AA(OL)
angle_coeff 476 65. 117. # AA(OL) SCH JPC 79,2379
angle_coeff 477 70. 115. # ACID(OL) SCH JPC 79,2379
angle_coeff 478 81. 111.4 # from FK506, SKF8
angle_coeff 479 80. 120.4 # AA(OL)
angle_coeff 480 51.8 107.2 # "
angle_coeff 481 51.8 107.2 # "
angle_coeff 482 51.8 107.2 # "
angle_coeff 483 43.2 108.1 # wlj MM3 based
angle_coeff 484 38. 118.4 # AA(OL)
angle_coeff 485 70. 121.2 # URA,CYT
angle_coeff 486 70. 128.8 #
angle_coeff 487 55.0 108.5 # THR(OL),SUG
angle_coeff 488 100.0 111.8 # SUG(dme based)
angle_coeff 489 100.0 113.0 # "
angle_coeff 490 55.0 108.5 # SUG
angle_coeff 491 100.0 120.5 # SUG
angle_coeff 492 70. 120.1 # CYT
angle_coeff 493 70. 121.5 # CYT
angle_coeff 494 70. 121.2 # CYT
angle_coeff 495 85. 119.7 #
angle_coeff 496 70. 114.1 # URA
angle_coeff 497 80. 125.3 # URA
angle_coeff 498 70. 121.2 #
angle_coeff 499 35. 119.2 #
angle_coeff 500 70. 128.8 # wlj
angle_coeff 501 30. 128.8 # wlj
angle_coeff 502 70. 128.8 # jtr (12/7/01)
angle_coeff 503 70. 128.8 #
angle_coeff 504 30. 128.8 #
angle_coeff 505 200. 180.0 # wlj 9/11 halogen bonding
angle_coeff 506 70. 124.0 # wlj
angle_coeff 507 70. 124.0 # wlj
angle_coeff 508 70. 118.7 # wlj
angle_coeff 509 35. 120.0 # wlj
angle_coeff 510 35. 120.0 # wlj
angle_coeff 511 70. 121.2 #
angle_coeff 512 70. 121.5 #
angle_coeff 513 70. 120.1 #
angle_coeff 514 70. 120.1 #
angle_coeff 515 70. 121.5 # copy from above for CytH+ (jtr 5-14-91)
angle_coeff 516 70. 121.5 #
angle_coeff 517 70. 121.2 # THY
angle_coeff 518 75. 120.0 # wlj
angle_coeff 519 70. 124.0 # wlj
angle_coeff 520 70. 124.0 # hept, copy from CM-CM-CT rcr HIVRT
angle_coeff 521 70. 124.0 # wlj
angle_coeff 522 75. 121.5 # wlj
angle_coeff 523 80. 121.5 # wlj
angle_coeff 524 35. 119.7 #
angle_coeff 525 35. 120.0 # wlj
angle_coeff 526 35. 120.0 # wlj
angle_coeff 527 70. 121.2 # copy from above for CytH+ (jtr 5-14-91)
angle_coeff 528 70. 121.2 #
angle_coeff 529 70. 123. # wlj
angle_coeff 530 70. 123. # wlj
angle_coeff 531 40.0 109.5 # hept, copy from CA-CT-CA rcr HIVRT
angle_coeff 532 63. 112.4 # mwm
angle_coeff 533 63.0 111.1 # " wlj
angle_coeff 534 50. 109.5 # wlj
angle_coeff 535 35. 109.5 #
angle_coeff 536 63. 114. # hept, copy from CA-CT-CT rcr HIVRT
angle_coeff 537 35. 109.5 # hept, copy from CM-CT-HC rcr HIVRT
angle_coeff 538 160. 180. # wlj
angle_coeff 539 150. 180. # wlj
angle_coeff 540 200. 180.0 # wlj 9/11
angle_coeff 541 70. 114.1 # THY
angle_coeff 542 70. 115.5 # wlj
angle_coeff 543 80. 125.3 # THY
angle_coeff 544 160. 180. # wlj 9/06
angle_coeff 545 160. 180. # wlj 9/06
angle_coeff 546 200. 180.0 # wlj 9/11
angle_coeff 547 35. 119.2 # copy from above for CytH+ (jtr 5-14-91)
angle_coeff 548 70. 112.2 # GUA
angle_coeff 549 100. 180.0 # wlj diazo
angle_coeff 550 35. 119.8 # wlj
angle_coeff 551 70. 121.2 # jtr 12/11/01
angle_coeff 552 70. 121.2 #
angle_coeff 553 35. 119.2 #
angle_coeff 554 35. 109.0 # wlj
angle_coeff 555 75. 111.0 # hept, copy from CT-S -CT rcr HIVRT
angle_coeff 556 35. 120.0 #
angle_coeff 557 70. 111.6 # TRP(OL)
angle_coeff 558 35. 123.1 # TRP
angle_coeff 559 58.35 112.7 # " : CT-CT-CT - wd 6/95 Glucose
angle_coeff 560 37.5 110.7 # " : CT-CT-HC - wd 6/95 Glucose
angle_coeff 561 50. 109.5 # " : CT-CT-OH - wd 6/95 Glucose
angle_coeff 562 55. 108.5 # " : CT-OH-HO - wd 6/95 Glucose
angle_coeff 563 60. 109.5 # " : CT-OS-CT - wd 6/95 Glucose
angle_coeff 564 63. 123.8 # MKD New Thiophene MP2(full)/6-311G(d,p)
angle_coeff 565 63. 120.5 # MKD New Thiophene MP2(full)/6-311G(d,p)
angle_coeff 566 63. 117.2 # MKD New Thiophene MP2(full)/6-311G(d,p)
angle_coeff 567 63. 116.8 # MKD New Thiophene MP2(full)/6-311G(d,p)
angle_coeff 568 35. 123.3 #
angle_coeff 569 63. 123.6 # MKD New Thiophene MP2(full)/6-311G(d,p)
angle_coeff 570 35. 123.1 # MKD New Thiophene MP2(full)/6-311G(d,p)
angle_coeff 571 35.0 109.5 # JT-R 2014/04: thiophenes
angle_coeff 572 35. 126.35 # HIS(OL)
angle_coeff 573 50.0 116.0 # JT-R 2014/04 aminothiophenes, from wlj anilines 9/06
angle_coeff 574 35.0 116.0 # JT-R 2014/04 aminothiophenes, from wlj anilines 9/06
angle_coeff 575 35. 109.0 # JT-R 2014/04 hydroxy thiophene
angle_coeff 576 60. 114.0 # JT-R 2014/04 methoxy thiophene MP2/aug-cc-pVTZ
angle_coeff 577 70. 92.2 # MKD New Thiophene MP2(full)/6-311G(d,p)
angle_coeff 578 70. 92.2 # MKD New Thiophene MP2(full)/6-311G(d,p)
angle_coeff 579 60. 96.0 # JT-R 2014/04 thiophene thiol MP2/aug-cc-pVTZ
angle_coeff 580 60. 99.9 # JT-R 2014/04 thiophene thioethers MP2/aug-cc-pVTZ
angle_coeff 581 35. 120. # wlj
angle_coeff 582 70. 118.6 # MKD synonym for CA-NC-CQ
angle_coeff 583 70. 118.6 # wlj 1,3,5-triazine
angle_coeff 584 5. 119.8 # wlj
angle_coeff 585 70. 118.2 # MKD MP2(full)/6-311G(d,p)
angle_coeff 586 35. 118.0 # wlj
angle_coeff 587 63. 114.3 # MKD MP2(full)/6-311G(d,p) new
angle_coeff 588 70. 116.6 # MKD MP2(full)/6-311G(d,p) new
angle_coeff 589 70. 110.4 # wlj
angle_coeff 590 70. 126.2 # MKD MP2/6-311G(d,p)
angle_coeff 591 35. 124.00 # HIS(OL)
angle_coeff 592 56. 113.1 # "
angle_coeff 593 70. 110.0 # wlj
angle_coeff 594 70. 110.0 # JT-R thiadiazoles
angle_coeff 595 70. 110.0 # HIS(OL) wlj 1/97
angle_coeff 596 70. 104.0 # wlj ai purine 6/14
angle_coeff 597 70. 110.0 #
angle_coeff 598 10.0 125. # wlj
angle_coeff 599 70. 109.0 # wlj 12/06
angle_coeff 600 70. 107.3 # JT-R oxatriazoles
angle_coeff 601 70. 110.8 # JT-R thiatriazole
angle_coeff 602 70. 111.0 # wlj
angle_coeff 603 70. 107.0 # wlj 12/06
angle_coeff 604 70. 106.5 # wlj furan
angle_coeff 605 70. 107.0 # wlj 12/06
angle_coeff 606 70. 104.0 # "
angle_coeff 607 10.0 125. # wlj
angle_coeff 608 70. 92.2 # MKD New Thiophene MP2(full)/6-311G(d,p)
angle_coeff 609 70. 85.7 # JT-R thiatriazoles
angle_coeff 610 62.0 102.0 #
angle_coeff 611 74. 97.0 # wlj
angle_coeff 612 74. 90.0 # wlj
angle_coeff 613 10.0 130. # wlj
angle_coeff 614 63. 116.8 # MKD MP2(full)/6-311G(d,p) new
angle_coeff 615 63. 117.0 # MKD MP2(full)/6-311G(d,p) new
angle_coeff 616 85. 134.9 #
angle_coeff 617 85. 108.8 #
angle_coeff 618 85. 134.9 #
angle_coeff 619 85. 108.8 #
angle_coeff 620 63. 127.7 # MKD New Thiophene MP2(full)/6-311G(d,p)
angle_coeff 621 70. 128.5 # JT-R 2014/04 thiophenes MP2/aug-cc-pVTZ
angle_coeff 622 70. 128.5 # JT-R 2014/04 thiophenes MP2/aug-cc-pVTZ
angle_coeff 623 70. 128.5 # JT-R 2014/04
angle_coeff 624 70. 128.4 # JT-R 2014/04 cyclopropyl thiophene MP2/aug-cc-pVTZ
angle_coeff 625 35. 128.2 # MKD New Thiophene MP2(full)/6-311G(d,p)
angle_coeff 626 70. 128.6 # JT-R 2014/04 amino thiophene MP2/aug-cc-pVTZ
angle_coeff 627 60. 128.0 # JT-R 2014/04 methoxy thiophene MP2/aug-cc-pVTZ
angle_coeff 628 65. 127.1 # JT-R 2014/04 thiophene thiol MP2/aug-cc-pVTZ
angle_coeff 629 65. 127.1 # JT-R 2014/04 thiophene thioethers MP2/aug-cc-pVTZ
angle_coeff 630 70. 106.2 # wlj
angle_coeff 631 70. 127.7 # wlj
angle_coeff 632 70. 127.5 # "
angle_coeff 633 70. 112.3 # MKD New Thiophene MP2(full)/6-311G(d,p)
angle_coeff 634 35. 127.5 # "
angle_coeff 635 63.0 115.6 # wlj
angle_coeff 636 35. 109.5 # wlj
angle_coeff 637 70. 129.4 # MKD MP2(full)/6-311G(d,p) - 3-methylisoxazole
angle_coeff 638 70. 132.1 # "
angle_coeff 639 70. 132.1 # wlj/nm
angle_coeff 640 70. 134.0 # JT-R 2014/04
angle_coeff 641 35. 132.1 # "
angle_coeff 642 70. 107.7 # MKD synonym for CS-CW-NA
angle_coeff 643 60. 130.5 # JT-R 2014/04 amino pyrrole MP2/aug-cc-pVTZ
angle_coeff 644 80. 128.2 # wlj
angle_coeff 645 100. 180.0 # wlj diazo
angle_coeff 646 35. 119.8 # wlj
angle_coeff 647 10.0 109.47 # wlj 1/19
angle_coeff 648 200. 180.0 # wlj 9/11 halogen bonding
angle_coeff 649 172.8 120.0 # wlj JACS 94, 4632 (1972)
angle_coeff 650 144.0 120.0 # wlj "
angle_coeff 651 56.2 109.47 # wlj - MM3 based - JACS 112, 8314 (90)
angle_coeff 652 70. 124. # OPLS hydrocarbons ff (jtr 5-14-91)
angle_coeff 653 70. 124. # OPLS hydrocarbons ff (jtr 5-14-91)
angle_coeff 654 70. 124. # OPLS hydrocarbons ff (jtr 5-14-91)
angle_coeff 655 70. 124. # OPLS hydrocarbons ff (jtr 5-14-91)
angle_coeff 656 70. 124. # OPLS hydrocarbons ff (jtr 5-14-91)
angle_coeff 657 70. 124. # OPLS hydrocarbons ff (jtr 5-14-91)
angle_coeff 658 70. 124. # OPLS hydrocarbons ff (jtr 5-14-91)
angle_coeff 659 70. 124. # OPLS hydrocarbons ff (jtr 5-14-91)
angle_coeff 660 70. 120.00 # Added DSM (from CT-CC-NA)
angle_coeff 661 70. 120.00 # HIS(OL)
angle_coeff 662 70. 120.00 # HIS(OL)
angle_coeff 663 70. 120.00 # HIS(OL)
angle_coeff 664 70. 120.00 # HIS(OL)
angle_coeff 665 56.2 109.47 # wlj - MM3 based - JACS 112, 8314 (90)
angle_coeff 666 70. 124.0 # mwm
angle_coeff 667 70. 130.0 # wlj
angle_coeff 668 35. 117.0 # wlj
angle_coeff 669 37.5 110.7 # " : CT-CT-HC - wd 6/95 Glucose
angle_coeff 670 50. 109.5 # jtr (12/7/01)
angle_coeff 671 50. 109.5 # " : CT-CT-OH - wd 6/95 Glucose
angle_coeff 672 70. 125. #
angle_coeff 673 69. 110.0 # wlj
angle_coeff 674 63.0 105.0 # wlj
angle_coeff 675 58.35 112.7 # CHARMM 22 parameter file
angle_coeff 676 58.35 112.7 # wlj
angle_coeff 677 69. 109.8 # wlj - from MM2
angle_coeff 678 50. 109.5 # PAK F-CT-HC (emd 5-09-94)
angle_coeff 679 37.5 110.7 # CHARMM 22
angle_coeff 680 75. 112.0 # wlj
angle_coeff 681 80.0 111.2 # ARG JCP 76, 1439
angle_coeff 682 80.0 111.2 # LYS(OL) JCP 76, 1439
angle_coeff 683 65. 109.0 # wlj azide
angle_coeff 684 70. 109.5 # MKD
angle_coeff 685 80.0 109.7 # ALA JACS 94, 2657
angle_coeff 686 63. 111.1 # wlj nitro
angle_coeff 687 56.2 109.47 # wlj - MM3 based - JACS 112, 8314 (90)
angle_coeff 688 80.0 111.2 # jtr: neutral ARG
angle_coeff 689 80.0 109.7 # ALA JACS 94, 2657
angle_coeff 690 50. 109.5 #
angle_coeff 691 50. 109.5 #
angle_coeff 692 50. 109.5 #
angle_coeff 693 43. 109.5 # wlj 9/97
angle_coeff 694 43. 109.5 # "
angle_coeff 695 50.0 108.6 # CYS
angle_coeff 696 50.0 108.6 #
angle_coeff 697 50.0 108.6 #
angle_coeff 698 40. 114.0 # wlj fit to expt
angle_coeff 699 50. 114.7 # CYX SCHERAGA JPC 79,1428
angle_coeff 700 70. 130.7 # jtr: HIE CB-CG-CD2
angle_coeff 701 70. 130.7 # jtr: HID CB-CG-CD2
angle_coeff 702 70. 120.00 #
angle_coeff 703 70. 121.6 # wlj
angle_coeff 704 70. 116.6 # JT-R 2014/04 MP2/aug-cc-pVTZ - changed from 12.16 wlj
angle_coeff 705 70. 130.7 # jtr: HIP CB-CG-CD2
angle_coeff 706 70. 121.6 # jtr - copy from CT-CW-NA for HIP
angle_coeff 707 35. 114.3 # "
angle_coeff 708 37.5 117.2 # "
angle_coeff 709 37.5 114.0 # "
angle_coeff 710 150. 180. # do 11/98 - JPOC, 9, 191(1996)
angle_coeff 711 150. 180. # wlj
angle_coeff 712 10.0 109.47 # wlj 1/19
angle_coeff 713 200. 180.0 # wlj 9/11
angle_coeff 714 75. 109.0 # wlj
angle_coeff 715 70. 116. # wlj
angle_coeff 716 70. 116. # wlj 7/96
angle_coeff 717 75. 109.0 # wlj
angle_coeff 718 80. 117.2 # (JP 1-6-91) SKF8
angle_coeff 719 35. 115.0 # wlj
angle_coeff 720 70. 105.8 # MKD MP2(full)/6-311G(d,p) - hydantoin
angle_coeff 721 70. 116.6 #
angle_coeff 722 70. 116.6 #
angle_coeff 723 70. 117. # GLU(OL) SCH JPC 79,2379
[...]
dihedral_coeff 1002 0.0 7.250 0.0 0.0 #
dihedral_coeff 1003 2.91 1.83 1.21 0.0 # biaryl_26
dihedral_coeff 1004 0.63 0.8 1.54 -0.74 # biaryl_26 keep V4
dihedral_coeff 1005 7.33 2.18 0.51 0.0 # biaryl_29
dihedral_coeff 1006 4.0 2.13 1.6 0.0 # biaryl_29
dihedral_coeff 1007 2.91 1.83 1.21 0.0 # biaryl_24
dihedral_coeff 1008 7.33 2.18 0.51 0.0 # biaryl_27
dihedral_coeff 1009 6.25 1.78 1.43 0.0 # biaryl_28
dihedral_coeff 1010 -2.000 1.000 0.000 0.0 # hetero diketones  4/08
dihedral_coeff 1011 2.000 1.000 0.000 0.0 # hetero diketones  4/08
dihedral_coeff 1012 0.071 0.0 0.188 0.0 # 2-alkylpyrrole  JT-R 2014/04 fit AA/C
dihedral_coeff 1013 1.10 -2.2 0.3 0.0 # 2-cyclopropyl pyrrole JT-R 2014/04 -
dihedral_coeff 1014 1.75 -1.12 0.0 0.74 # 2-Me2Npyrrole JT-R 2014/04 fit AA+CM1
dihedral_coeff 1015 0.0 -2.24 0.0 0.0 # 2-aminopyrroles JT-R 2014/04 fit AA+C
dihedral_coeff 1016 0.000 1.000 0.000 0.0 # hetero diketones  4/08
dihedral_coeff 1017 0.000 1.000 0.000 0.0 # hetero diketones  4/08
dihedral_coeff 1018 0.0 2.100 0.0 0.0 # diarylamine
dihedral_coeff 1019 0.0 2.100 0.0 0.0 # diarylamine
dihedral_coeff 1020 0.0 2.100 0.0 0.0 # diarylamine
dihedral_coeff 1021 0.0 2.100 0.0 0.0 # diarylamine
dihedral_coeff 1022 0.0 2.100 0.0 0.0 # diarylamine
dihedral_coeff 1023 0.0 2.100 0.0 0.0 # diarylamine
dihedral_coeff 1024 0.0 2.100 0.0 0.0 # diarylamine
dihedral_coeff 1025 0.0 7.250 0.0 0.0 #
dihedral_coeff 1026 0.0 7.250 0.0 0.0 #
dihedral_coeff 1027 0.0 7.250 0.0 0.0 #
dihedral_coeff 1028 0.000 0.000 0.000 0.0 # VHL_3
dihedral_coeff 1029 0.0 7.250 0.0 0.0 #
dihedral_coeff 1030 0.0 7.250 0.0 0.0 #
dihedral_coeff 1031 0.0 7.250 0.0 0.0 #
dihedral_coeff 1032 0.0 2.84 0.0 0.0 # biaryl_22
dihedral_coeff 1033 0.0 1.11 0.0 -0.13 # biaryl_12 keep V4
dihedral_coeff 1034 0.0 7.250 0.0 0.0 #
dihedral_coeff 1035 0.0 7.250 0.0 0.0 #
dihedral_coeff 1036 0.0 1.95 0.0 0.0 # biaryl_13-18
dihedral_coeff 1037 0.0 2.65 0.0 0.0 # biaryl_16
dihedral_coeff 1038 0.0 3.33 0.0 0.0 # biaryl_17
dihedral_coeff 1039 0.0 1.03 0.0 0.0 # biaryl_19
dihedral_coeff 1040 0.0 1.95 0.0 0.0 # biaryl_13-18
dihedral_coeff 1041 0.0 1.95 0.0 0.0 # biaryl_13-18
dihedral_coeff 1042 0.0 1.95 0.0 0.0 # biaryl_13-18
dihedral_coeff 1043 0.0 1.03 0.0 0.0 # 2-pyridinyl-4-triazole
dihedral_coeff 1044 0.0 1.95 0.0 0.0 # biaryl_13-18
dihedral_coeff 1045 0.0 3.33 0.0 0.0 # biaryl_17
dihedral_coeff 1046 0.0 3.7 0.0 0.0 # biaryl_18
dihedral_coeff 1047 0.0 2.29 0.0 0.0 # biaryl_15
dihedral_coeff 1048 0.0 2.49 0.0 0.0 # biaryl_20
dihedral_coeff 1049 0.0 2.17 0.0 0.0 # biphenyl-like
dihedral_coeff 1050 0.0 2.17 0.0 0.0 # biphenyl-like
dihedral_coeff 1051 0.0 0.0 0.100 0.0 # 2-methylpyridine JT-R 2014/04 fit AA
dihedral_coeff 1052 -0.92 5.10 0.0 0.0 # 2-NMe2-pyridine JT-R 2014/04 fit AA/C
dihedral_coeff 1053 0.000 3.80 0.0 0.0 # 2-amino pyridine, JT-R 2014/04 fit AA
dihedral_coeff 1054 -3.76 5.03 0.61 0.46 # biaryl_ether_15_scan_1_Phi1
dihedral_coeff 1055 0.000 6.089 0.000 0.0 # quanidine 11/10
dihedral_coeff 1056 4.64 -1.27 0.45 0.08 # alkyl_hydantoin
dihedral_coeff 1057 1.964 0.000 0.659 0.0 # tertiary amide
dihedral_coeff 1058 0.000 0.000 0.464 0.0 # tertiary amide
dihedral_coeff 1059 2.0 0.0 0.0 0.0 # 2-chloroethylamines
dihedral_coeff 1060 11.035 -0.968 0.270 0.0 # amine all-atom
dihedral_coeff 1061 8.000 0.0 0.0 0.0 # 2-aminoethanol 6-31G* fit - wj
dihedral_coeff 1062 5.260 0.820 0.0 0.0 # neutral amino acid
dihedral_coeff 1063 0.0 7.250 0.0 0.0 # JT-R 2014/04 added for 2-aminopyrro
dihedral_coeff 1064 0.0 7.250 0.0 0.0 # JT-R 2014/04 added for 2-aminopyrro
dihedral_coeff 1065 0.0 7.250 0.0 0.0 # JT-R 2014/04 added for 2NH2Furan
dihedral_coeff 1066 1.712 0.725 0.366 0.0 # Chi-1 Phe, Tyr OPLS-AA/M
dihedral_coeff 1067 0.103 0.653 0.563 0.0 # Chi-1  Arg OPLS-AA/M
dihedral_coeff 1068 0.884 0.897 0.880 0.0 # Chi-1  Gln,Glh,Lys,Lyn,Arn OPLS-AA/M
dihedral_coeff 1069 1.987 0.457 0.820 0.0 # Chi-1  Glu OPLS-AA/M
dihedral_coeff 1070 0.214 0.541 0.392 0.0 # Chi-1  Met OPLS-AA/M
dihedral_coeff 1071 1.964 0.000 0.659 0.0 # N-propylformamide
dihedral_coeff 1072 1.572 0.159 0.200 0.0 # Chi-1  Pro OPLS-AA/M
dihedral_coeff 1073 1.572 0.159 0.200 0.0 # Chi-1 Leu OPLS-AA/M
dihedral_coeff 1074 -0.542 0.435 0.000 0.0 # Chi-1  Hie OPLS-AA/M
dihedral_coeff 1075 -0.542 0.435 0.000 0.0 # Chi-1  Hid OPLS-AA/M
dihedral_coeff 1076 -3.038 0.419 0.000 0.0 # Chi-1  Hip OPLS-AA/M
dihedral_coeff 1077 -5.501 1.527 0.000 0.0 # Chi-1  Asn OPLS-AA/M
dihedral_coeff 1078 -7.890 0.662 0.997 0.0 # Chi-1  Asp,Ash OPLS-AA/M
dihedral_coeff 1079 -9.000 2.000 0.800 0.0 # Central (phi) torsion for beta-3-pept
dihedral_coeff 1080 0.000 0.000 0.464 0.0 # N-ethylformamide
dihedral_coeff 1081 6.258 -1.037 1.367 0.0 # Chi-1 for Ser & Thr OPLS-AA/M
dihedral_coeff 1082 -0.940 2.755 -2.670 0.0 # Psi  Pro OPLS-AA/M
dihedral_coeff 1083 1.810 2.155 -0.470 0.0 # Psi  peptides AA/M
dihedral_coeff 1084 0.000 0.000 0.000 0.0 # peptides
dihedral_coeff 1085 -0.500 0.200 0.000 0.0 # dicarbonyls    "
dihedral_coeff 1086 -0.900 0.300 0.000 0.0 # dicarbonyls    "
dihedral_coeff 1087 0.000 0.000 0.000 0.0 # dicarbonyls    "
dihedral_coeff 1088 0.0 14.0 0.0 0.0 # quanidine
dihedral_coeff 1089 0.0 14.0 0.0 0.0 # quanidine
dihedral_coeff 1090 0.0 14.0 0.0 0.0 # quanidine
dihedral_coeff 1091 0.0 14.0 0.0 0.0 # quanidine
dihedral_coeff 1092 4.6 0.0 0.0 0.0 # alkyl urea   wlj 09/08
dihedral_coeff 1093 2.300 6.089 0.000 0.0 # imides
dihedral_coeff 1094 0.000 4.900 0.000 0.0 # imides
dihedral_coeff 1095 -2.000 5.000 0.0 0.0 # carbamates
dihedral_coeff 1096 -2.000 5.000 0.0 0.0 # carbamates
dihedral_coeff 1097 0.90 -2.93 2.64 0.0 # dimethyl phosphate
dihedral_coeff 1098 0.0 0.0 0.00 0.0 # phosphonates
dihedral_coeff 1099 0.0 7.250 0.0 0.0 #
dihedral_coeff 1100 0.0 2.100 0.0 0.0 # diarylamine
dihedral_coeff 1101 0.0 2.133 0.0 0.0 # aniline-like
dihedral_coeff 1102 0.0 2.100 0.0 0.0 # diarylamine
dihedral_coeff 1103 0.0 7.250 0.0 0.0 # JT-R 2014/04 added for Furans
dihedral_coeff 1104 0.0 7.250 0.0 0.0 #
dihedral_coeff 1105 0.14 -0.09 0.54 0.0 # 2-alkyl furans  JT-R 2014/04 fit AA+C
dihedral_coeff 1106 0.000 1.500 0.000 0.0 # hetero diketones  4/08
dihedral_coeff 1107 -0.750 1.500 0.000 0.0 # hetero diketones  4/08
dihedral_coeff 1108 0.0 -1.40 1.30 0.47 # 2-Me2N-furan JT-R 2014/04 fit AA/CM1A
dihedral_coeff 1109 0.0 2.100 0.0 0.0 # diarylamine
dihedral_coeff 1110 0.0 2.100 0.0 0.0 # diarylamine
dihedral_coeff 1111 1.3 -1.0 0.33 0.0 # 2-hydroxyfuran JT-R 2014/04 fit AA/CM
dihedral_coeff 1112 1.5 -0.574 1.3 0.0 # 2-methoxyfuran JT-R 2014/04 fit AA/CM
dihedral_coeff 1113 1.2 -2.84 1.2 0.0 # 2-thiomethylfuran JT-R 2014/04 fit AA
dihedral_coeff 1114 9.066 0.0 0.0 0.0 # hexopyranoses
dihedral_coeff 1115 12.234 0.00 0.000 0.0 # triols only AA
dihedral_coeff 1116 9.508 0.00 0.000 0.0 # diols only  AA
dihedral_coeff 1117 4.319 0.0 0.0 0.0 # hexopyranoses
dihedral_coeff 1118 0.0 7.250 0.0 0.0 # JT-R 2014/04 added for 2-hydroxypyr
dihedral_coeff 1119 0.0 7.250 0.0 0.0 # JT-R 2014/04 added for 2-hydroxypyr
dihedral_coeff 1120 0.0 7.250 0.0 0.0 # JT-R 2014/04 added for 2-hydroxypyr
dihedral_coeff 1121 2.300 6.089 0.0 0.0 # carbamates
dihedral_coeff 1122 0.000 4.900 0.0 0.0 # carbamates
dihedral_coeff 1123 0.0 0.0 0.00 0.0 # phosphonates
dihedral_coeff 1124 -1.257 -1.806 0.003 0.0 # hexopyranoses
dihedral_coeff 1125 0.0 7.250 0.0 0.0 #
dihedral_coeff 1126 0.0 7.250 0.0 0.0 # JT-R 2014/04 added for Thiophenes
dihedral_coeff 1127 -0.550 0.0 0.0 0.0 # polyethers, crown ethers
dihedral_coeff 1128 2.8 2.1 1.3 0.0 # biaryl_25
dihedral_coeff 1129 0.34 -0.27 0.63 0.0 # VHL_2
dihedral_coeff 1130 2.300 6.089 0.0 0.0 # carbamates
dihedral_coeff 1131 0.000 4.900 0.0 0.0 # carbamates
dihedral_coeff 1132 4.669 5.124 0.0000 0.0 # carbonates - tentative
dihedral_coeff 1133 0.000 0.000 0.000 0.0 # tentative
dihedral_coeff 1134 0.000 0.000 0.000 0.0 # vinylsulfone wlj 2/22
dihedral_coeff 1135 0.000 0.000 0.000 0.0 # vinylsulfone wlj 2/22
dihedral_coeff 1136 0.75 0.0 0.0 0.0 # sulfonic acid 7/08 B3LYP
dihedral_coeff 1137 0.000 6.089 0.000 0.0 # small ring amides
dihedral_coeff 1138 0.000 6.089 0.000 0.0 # small ring amides
dihedral_coeff 1139 0.000 20.000 0.000 0.0 # small ring amides
dihedral_coeff 1140 0.000 4.900 0.000 0.0 # small ring amides
dihedral_coeff 1141 0.000 0.500 0.000 0.0 # dicarbonyls Kahn & Bruice
dihedral_coeff 1142 0.000 0.200 0.000 0.0 # dicarbonyls BMC 8,1881(2000)
dihedral_coeff 1143 1.60 3.20 0.0 0.0 # dicarbonyls    "
dihedral_coeff 1144 0.000 4.900 0.000 0.0 # tert. amides 2/29/04
dihedral_coeff 1145 0.000 6.089 0.000 0.0 # amides
dihedral_coeff 1146 0.000 6.089 0.000 0.0 # amides
dihedral_coeff 1147 0.000 6.089 0.000 0.0 # amides
dihedral_coeff 1148 0.000 6.089 0.000 0.0 # small ring amides
dihedral_coeff 1149 0.000 4.900 0.000 0.0 # amides   wlj 6/20/97
dihedral_coeff 1150 0.000 6.603 0.000 0.0 # hydroxamic acids
dihedral_coeff 1151 0.000 5.000 0.00 0.0 # benzoic acids
dihedral_coeff 1152 0.000 5.500 0.00 0.0 # carboxylic acid - aliphatic
dihedral_coeff 1153 0.000 5.000 0.000 0.0 # phenyl acetate
dihedral_coeff 1154 0.000 5.000 0.00 0.0 # benzoic esters
dihedral_coeff 1155 0.000 5.124 0.0000 0.0 # esters
dihedral_coeff 1156 0.0 0.0 0.00 0.0 # phosphonates
dihedral_coeff 1157 0.0 0.0 0.00 0.0 # phosphonates
dihedral_coeff 1158 0.0 0.0 0.30 0.0 # phosphonates
dihedral_coeff 1159 0.000 6.500 0.000 0.0 # thioamides   MP3/6-31+G**
dihedral_coeff 1160 0.000 6.500 0.000 0.0 # thioamides   (Wiberg & Rush)
dihedral_coeff 1161 0.000 6.500 0.000 0.0 # thioamides   fit to
dihedral_coeff 1162 -0.700 5.000 0.000 0.0 # thioamides   wlj 01/00; 09/08
dihedral_coeff 1163 0.000 5.500 0.00 0.0 # thioacids    guess
dihedral_coeff 1164 0.000 5.000 0.000 0.0 # thioesters   guess
dihedral_coeff 1165 0.0 10.75 0.0 0.0 #
dihedral_coeff 1166 0.0 7.250 0.0 0.0 # JT-R 2014/04 added for Thiophenes
dihedral_coeff 1167 0.0 10.75 0.0 0.0 #
dihedral_coeff 1168 0.0 0.26 0.1 0.0 # 2-alkyl thiophenes JT-R 2014/04 fit A
dihedral_coeff 1169 0.97 0.08 0.14 0.0 # 2-alkyl thiophenes JT-R 2014/04 fit A
dihedral_coeff 1170 0.0 -1.04 0.0 0.23 # 2-cyclopropyl thiophenes JT-R 2014/04
dihedral_coeff 1171 1.19 0.0 0.40 0.0 # 2-cyclopropyl thiophenes JT-R 2014/04
dihedral_coeff 1172 0.0 7.250 0.0 0.0 #
dihedral_coeff 1173 0.0 7.250 0.0 0.0 #
dihedral_coeff 1174 0.0 2.100 0.0 0.0 # diarylamine
dihedral_coeff 1175 0.0 2.100 0.0 0.0 # diarylamine
dihedral_coeff 1176 0.0 2.100 0.0 0.0 # diarylamine
dihedral_coeff 1177 0.0 2.133 0.0 0.0 # aniline-like
dihedral_coeff 1178 0.0 2.100 0.0 0.0 # diarylamine
dihedral_coeff 1179 0.0 10.75 0.0 0.0 #
dihedral_coeff 1180 0.0 10.75 0.0 0.0 #
dihedral_coeff 1181 0.0 10.75 0.0 0.0 #
dihedral_coeff 1182 0.0 2.100 0.0 0.0 # diarylamine
dihedral_coeff 1183 0.0 2.100 0.0 0.0 # diarylamine
dihedral_coeff 1184 0.0 7.250 0.0 0.0 # JT-R 2014/04 added for 2-thiolpyrro
dihedral_coeff 1185 0.0 7.250 0.0 0.0 # JT-R 2014/04 added for 2-thiolpyrro
dihedral_coeff 1186 0.0 7.250 0.0 0.0 # JT-R 2014/04 added for 2-thiolpyrro
dihedral_coeff 1187 0.0 14.0 0.0 0.0 # vinyl sulfone
dihedral_coeff 1188 0.0 14.0 0.0 0.0 # vinyl sulfone
dihedral_coeff 1189 0.000 0.000 0.260 0.0 # silane  1-silapropane
dihedral_coeff 1190 5.200 -0.500 0.000 0.0 # silane
dihedral_coeff 1191 0.000 0.000 0.000 0.0 # tentative
dihedral_coeff 1192 0.0 7.250 0.0 0.0 # JT-R 2014/04 added for Thiophenes
dihedral_coeff 1193 0.0 7.250 0.0 0.0 # JT-R 2014/04 added for 2-thiolpyrro
dihedral_coeff 1194 0.0 7.250 0.0 0.0 # JT-R 2014/04 added for 2-thiolpyrro
dihedral_coeff 1195 0.0 7.250 0.0 0.0 # JT-R 2014/04 added for 2-thiolpyrro
improper_coeff 1 2.5000 -1 2 # improper torsion 9/08 was 2.2
improper_coeff 2 15.0000 -1 2 # improper torsion
improper_coeff 3 2.5000 -1 2 # improper torsion 9/08 was 2.0
improper_coeff 4 10.5000 -1 2 # improper torsion
# UNTRUSTED: improper_coeff @improper:CT_CM_CM_CT -4.0000 -1 2 # allenes improper
# UNTRUSTED: improper_coeff @improper:CT_CM_CM_HC -4.0000 -1 2 # allenes improper
# UNTRUSTED: improper_coeff @improper:HC_CM_CM_CT -4.0000 -1 2 # allenes improper
# UNTRUSTED: improper_coeff @improper:HC_CM_CM_HC -4.0000 -1 2 # allenes improper
pair_coeff 992   992   0.066 3.5
pair_coeff 993   993   0.066 3.5
pair_coeff 994 994 0.03 2.5
pair_coeff 995 995 0.026290630975 2.5
pair_coeff 996  996   0.076 3.55
pair_coeff 997   997    0.03 2.42
pair_coeff 998  998   0.076 3.55
pair_coeff 999  999   0.076 3.55
pair_coeff 1000  1000   0.17 3.12
pair_coeff 1001  1001   0.0 0.0
pair_coeff 1002  1002  0.17 3.07
pair_coeff 1003  1003  0.0 0.0
pair_coeff 1004  1004  0.17 3.07
pair_coeff 1005  1005  0.0 0.0
pair_coeff 1006  1006  0.076 3.55
pair_coeff 1007  1007  0.08 3.5
pair_coeff 1008  1008  0.08 3.5
pair_coeff 1009  1009  0.08 3.5
pair_coeff 1010  1010  0.08 3.5
pair_coeff 1011  1011  0.08 3.5
pair_coeff 1012  1012  0.08 3.5
pair_coeff 1013  1013  0.08 3.5
pair_coeff 1014  1014  0.076 3.55
pair_coeff 1015  1015  0.105 3.1875
pair_coeff 1016  1016  0.168 3.108
pair_coeff 1017  1017  0.17 2.55
pair_coeff 1018  1018  0.076 3.55
pair_coeff 1019  1019  0.076 3.55
pair_coeff 1020  1020  0.076 3.55
pair_coeff 1021   1021   0.015 2.42
pair_coeff 1022 1022  0.086 3.3
pair_coeff 1023 1023  0.086 3.3
pair_coeff 1024 1024  0.086 3.3
dihedral_coeff 1196  0.6446926386 -0.2143420172 0.1782194073 0.0
dihedral_coeff 1197        0.0  12.2502629063 0.0 0.0
dihedral_coeff 1198 -0.8050121893 0.3218905354 -0.1032768881 0.0
dihedral_coeff 1199  0.4821902486 0.1343683078 0.1777461759 0.0
dihedral_coeff 1200    0.00962596 -0.0145554 0.381091 0.0
dihedral_coeff 1201     0.0143774 0.033021 0.26687 0.0
dihedral_coeff 1202   -0.675785 -0.0160421 0.373199 0.0
dihedral_coeff 1203     1.31261 -0.266307 0.637867 0.0
dihedral_coeff 1204    2.69106 -0.849706 0.725731 0.0
dihedral_coeff 1205    3.11923 5.73771 0.0 0.0
dihedral_coeff 1206   0.0 5.73772 0.0 0.0
dihedral_coeff 1207   -0.00742471 0.00217734 0.111803 0.0
dihedral_coeff 1208   -1.7354 -1.24844 0.623897 0.0
dihedral_coeff 1209     0.0113337 0.0236209 0.429747 0.0
dihedral_coeff 1210    0.884988 -0.626905 -0.493344 0.0
dihedral_coeff 1211   -0.276019 1.23685 -0.670745 0.0
dihedral_coeff 1212    -0.0021152 0.0173542 -0.295208 0.0
dihedral_coeff 1213    -2.30738 -0.627326 0.621951 0.0
dihedral_coeff 1214     2.25871 -1.02408 1.0071 0.0
dihedral_coeff 1215    4.66787 -2.62698 1.3248 0.0
dihedral_coeff 1216    5.03208 -2.37742 1.23809 0.0
pair_style      lj/cut/coul/cut 13.0 30.0
pair_modify     mix geometric
kspace_style    none


#place atoms randomly
#displace_atoms  all random 1800 1300 1300 87654 units box
change_box	all boundary	f p p
Changing box ...

# Add piston parameters (type 1001 to avoid conflicts)
pair_coeff      1001 	1001  0.0  1.0
mass		1001	14.007
# Molecule templates for random placement
#molecule        N2Mol    N2.mol
#molecule        FMol     C12H26.mol

# Composition: X_N2 = 88/89, X_fuel = 1/89
#variable        nN2    equal 880
#variable        nFuel  equal 10

# Create molecules randomly in box
#region          fillbox block 2.0 ${lz} 0 ${w} 0 ${w} units box
#create_atoms    0 random ${nN2}   12345 fillbox mol N2Mol   12345
#create_atoms    0 random ${nFuel} 67890 fillbox mol FMol    67890

# CRITICAL: Use actual type numbers from system.data
# Type 1:   N (from N2)
# Type 992: C in CH3 (dodecane terminal carbons)
# Type 993: C in CH2 (dodecane internal carbons)
# Type 994: H on CH3 (dodecane terminal hydrogens)
# Type 995: H on CH2 (dodecane internal hydrogens)

group           n2      type    1
1760 atoms in group n2
group           c_ch3   type    992
20 atoms in group c_ch3
group           c_ch2   type    993
100 atoms in group c_ch2
group           h_ch3   type    994
60 atoms in group h_ch3
group           h_ch2   type    995
200 atoms in group h_ch2
group           carbons union   c_ch3 c_ch2
120 atoms in group carbons
group           hydrogens union h_ch3 h_ch2
260 atoms in group hydrogens
group           cFuel   union   carbons hydrogens
380 atoms in group cFuel
group           gas     union   n2 cFuel
2140 atoms in group gas

# Define geometry variables
variable        lam  equal 140.0
variable        del  equal 370.0
variable        w    equal 10*${lam}
variable        w    equal 10*140
variable        lz   equal 10*${del}
variable        lz   equal 10*370


#increase neighbor list size for high initial density
#neigh_modify    one 4000 page 400000

#Minimize energy first to resolve overlaps
minimize        1.0e-4 1.0e-6 1000 10000
Generated 523776 of 523776 mixed pair_coeff terms from geometric mixing rule
Neighbor list info ...
  update: every = 1 steps, delay = 0 steps, check = yes
  max neighbors/atom: 2000, page size: 100000
  master list distance cutoff = 33
  ghost atom cutoff = 33
  binsize = 16.5, bins = 225 85 85
  1 neighbor lists, perpetual/occasional/extra = 1 0 0
  (1) pair lj/cut/coul/cut, perpetual
      attributes: half, newton on
      pair build: half/bin/newton
      stencil: half/bin/3d
      bin: standard
WARNING: Bond/angle/dihedral extent > half of periodic box length (../domain.cpp:1174)
Per MPI rank memory allocation (min/avg/max) = 24.05 | 24.05 | 24.05 Mbytes
   Step          Temp          E_pair         E_mol          TotEng         Press     
         0   0              1.7003931e+10  2.4026746e+10  4.1030678e+10  491786.04    
      1000   0              84391.29       2.1484037e+10  2.1484121e+10 -135627.91    
WARNING: Bond/angle/dihedral extent > half of periodic box length (../domain.cpp:1174)
Loop time of 0.498787 on 1 procs for 1000 steps with 2140 atoms

99.6% CPU use with 1 MPI tasks x no OpenMP threads

Minimization stats:
  Stopping criterion = max iterations
  Energy initial, next-to-last, final = 
      41030677613.6161   21486475877.6163   21484121326.7105
  Force two-norm initial, final = 8.2923894e+10 6181804.5
  Force max component initial, final = 1.8542479e+10 1623170.8
  Final line search alpha, max atom move = 6.1597848e-08 0.09998383
  Iterations, force evaluations = 1000 1001

MPI task timing breakdown:
Section |  min time  |  avg time  |  max time  |%varavg| %total
---------------------------------------------------------------
Pair    | 0.029941   | 0.029941   | 0.029941   |   0.0 |  6.00
Bond    | 0.29964    | 0.29964    | 0.29964    |   0.0 | 60.07
Neigh   | 0.089059   | 0.089059   | 0.089059   |   0.0 | 17.86
Comm    | 0.011535   | 0.011535   | 0.011535   |   0.0 |  2.31
Output  | 4.6278e-05 | 4.6278e-05 | 4.6278e-05 |   0.0 |  0.01
Modify  | 0          | 0          | 0          |   0.0 |  0.00
Other   |            | 0.06856    |            |       | 13.75

Nlocal:           2140 ave        2140 max        2140 min
Histogram: 1 0 0 0 0 0 0 0 0 0
Nghost:           1532 ave        1532 max        1532 min
Histogram: 1 0 0 0 0 0 0 0 0 0
Neighs:            710 ave         710 max         710 min
Histogram: 1 0 0 0 0 0 0 0 0 0

Total # of neighbors = 710
Ave neighs/atom = 0.3317757
Ave special neighs/atom = 2.7663551
Neighbor list builds = 66
Dangerous builds = 0
# Reset box after minimization
reset_timestep  0

# Pre-shock state: Ta=300 K, Pa~5 atm (equilibrate)
velocity        all create 300.0 9265 mom yes rot yes dist gaussian

# Equilibration stage
thermo          1000
thermo_style    custom step temp press pe ke etotal density vol

# 100 ps NVT (equilibrate temperature and pressure)
fix             nvt_run all nvt temp 300.0 300.0 100.0
run             100000
Generated 523776 of 523776 mixed pair_coeff terms from geometric mixing rule
WARNING: Bond/angle/dihedral extent > half of periodic box length (../domain.cpp:1174)
Per MPI rank memory allocation (min/avg/max) = 22.93 | 22.93 | 22.93 Mbytes
   Step          Temp          Press          PotEng         KinEng         TotEng        Density         Volume    
         0   300           -135627.9       2.1484121e+10  1912.7858      2.1484123e+10  6.0381092e-06  7.24808e+09  
ERROR on proc 0: Bond atoms 1837 1845 missing on proc 0 at step 9
For more information see https://docs.lammps.org/err0005 (../ntopo_bond_all.cpp:59)
